   This run of MOLCAS is using the pymolcas driver

                             OPE
                             OPE          NMOL  CASOP  ENMOLC A   SO
                 OPE        NMOLC        AS  OP EN  MO LC     AS  OP
                OPENM       OL CA        SO  PE NM  OL CA     SOP EN
                OP EN      MO   LC       AS  OP ENMOL  CASO   PENMOL
                OP  EN     MO   LC       AS  OP EN     MO     LC ASO
               OP   E  NMOL  C  AS       OP  EN MO     LC     AS  OP
               OP  E   NMO   LC AS        OPEN  MO     LCASOP EN   M
               O  PEN   MO  LCA  SO
            OPE   NMO   L   CAS    OP
        OPENMOL  CASOP     ENMOL   CASOPE
     OPENMOLCA   SOPENMOLCASOPEN   MOLCASOPE
    OPENMOLCAS   OP           EN   MOL    CAS
    OPENMOLCAS       OP  ENM        O     LCA
    OPENMOLCAS    OPEN  MOLCASO     P  E  NMO
    OPENMOLCAS     OP               E  N  MOL
    OPENMOLCA   SO           PENM   O  L  CAS    OPEN    MO    LCAS
    OPENMOLCA   SOP           ENM   O  L  CAS   OP  EN  MOLC  AS   O
    OPENMOLCA   SOPE           NM      O  LCA   S      OP  EN MO
    OPENMOLC                AS         O  PEN   M      OL  CA  SOPE
    OPENMO        LCASOPE  NMOL        C  ASO   P      ENMOLC     AS
    OPE     NMO      LCA  SO     P     E   NM   OL  CA SO  PE N   MO
          OPENMOLCA            SOPE   NMO        LCAS  O    P  ENMO
     OPENMOLCASOPENMOLCASOPENMOLCASOPENMOLCA
        OPENMOLCASOPENMOLCASOPENMOLCASOPE
            OPENMOLCASOPENMOLCASOPENM
               OPENMOLCASOPENMOLCA        version: 18.09
                   OPENMOLCASO
                       OPE                tag: 618-g92cc73c

 OpenMolcas is free software; you can redistribute it and/or modify it
 under the terms of the GNU Lesser General Public License version 2.1.
 OpenMolcas is distributed in the hope that it will be useful, but it
 is provided "as is" and without any express or implied warranties.
 For more details see the full text of the license in the file
 LICENSE or in <http://www.gnu.org/licenses/>.

                 Copyright (C) The OpenMolcas Authors
           For the author list and the recommended citation,
                   consult the file CONTRIBUTORS.md

           *************************************************
           * pymolcas version py2.08                       *
           *   build 832a6acd19ced84cc35e68b3cec53b87      *
           *   (after the EMIL interpreter by V. Veryazov) *
           *************************************************

configuration info
------------------
C Compiler ID: GNU
C flags: -std=gnu99
Fortran Compiler ID: GNU
Fortran flags: -cpp -fno-aggressive-loop-optimizations -fdefault-integer-8
Definitions: _MOLCAS_;_I8_;_LINUX_;_MKL_
Parallel: OFF (GA=OFF)


   ---------------------------------------------------------------------------------
  |
  |           Project: uf6
  |    Submitted from: /scratch/1992502
  |      Scratch area: /scratch/1992502
  |   Save outputs to: /projects/academic/jochena/gaurabga/TEST/mo-percent/UF6-NoSym
  |            Molcas: /projects/academic/jochena/gaurabga/Molcas/OpenMolcas/build
  |
  | Scratch area is NOT empty
  |
  |      MOLCAS_CPUS = 1
  |    MOLCAS_DRIVER = /projects/academic/jochena/gaurabga/bin/pymolcas
  |    MOLCAS_MOLDEN = ON
  |    MOLCAS_NPROCS = 1
  |     MOLCAS_PRINT = 3
  |    MOLCAS_SOURCE = /projects/academic/jochena/gaurabga/Molcas/OpenMolcas
  | MOLCAS_STRUCTURE = 0
  |
   ---------------------------------------------------------------------------------

++ ---------   Input file   ---------

&SEWARD
RICD

Basis set
U.ANO-RCC-VDZ
U            0.000000   0.000000   0.000000     angstrom
End of basis

Basis set
F.ANO-RCC-VDZ
F1           0.000000   0.000000   2.090557     angstrom
F2           0.000000   2.090557   0.000000     angstrom
F3           2.090557   0.000000   0.000000     angstrom
F4           0.000000   0.000000  -2.090557     angstrom
F5           0.000000  -2.090557   0.000000     angstrom
F6          -2.090557   0.000000   0.000000     angstrom
End of basis
Angmom
0.0 0.0 0.0
AMFI
End of input

>>> COPY ${Project}.GssOrb INPORB

&SCF
 Spin=1
 KSDFT=PBE
 Charge=0
 LumOrb
End of input

>>> COPY ${Project}.ScfOrb $HomeDir/${Project}.ScfOrb

>>> COPY $HomeDir/$Project.ScfOrb INPORB

&GRID_IT
 Sparse
 all
End of input

>>> COPY $Project.lus $HomeDir/${Project}-scf.lus

-- ----------------------------------

--- Start Module: seward at Tue May 12 16:26:33 2020 ---

()()()()()()()()()()()()()()()()()()()()()()()()()()()()()()()()()()()()()()()()()()()()()()()()()()

                                              &SEWARD

                                   only a single process is used
                       available to each process: 55 GB of memory, 1 thread?
()()()()()()()()()()()()()()()()()()()()()()()()()()()()()()()()()()()()()()()()()()()()()()()()()()



 Basis Set     1 Label: U.ANO-RCC-VDZ
 Basis set is read from library:basis_library 
 Basis Set Reference(s):
     B.O. Roos, R. Lindh, P.-A. Malmqvist, V. Veryazov, and P.-O. Widmark,           
     Chem. Phys.Letters 409, 295-299 (2005).                                         




 Basis Set     2 Label: F.ANO-RCC-VDZ
 Basis set is read from library:basis_library 
 Basis Set Reference(s):
     B. O. Roos, R. Lindh, P.-A. Malmqvist, V. Veryazov, and P.-O. Widmark,          
     J. Phys. Chem. A 108, 2851 (2004)                                               




 Basis Set     4 Label: U.ANO-RCC-VDZ....acCD-aux-basis.
 On-the-fly basis set generation


 Basis Set     5 Label: U.ANO-RCC-VDZ....acCD-aux-basis.
 On-the-fly basis set generation


 Basis Set     6 Label: F.ANO-RCC-VDZ....acCD-aux-basis.
 On-the-fly basis set generation

  Weights used for alignment and distance                     
  mat. size =     7x    1
      238.0507883999999876
       18.9984031627299998
       18.9984031627299998
       18.9984031627299998
       18.9984031627299998
       18.9984031627299998
       18.9984031627299998

               SEWARD will generate:
                  Multipole Moment integrals up to order  2
                  Kinetic Energy integrals
                  Nuclear Attraction integrals (point charge)
                  One-Electron Hamiltonian integrals
                  Velocity integrals
                  Relativistic Douglas-Kroll-Hess integrals:
                    - Parametrization         : EXP
                    - DKH order of Hamiltonian: 2
                    - DKH order of Properties : 0
                         - multipole moment operators
                         - electric potential operators
                         - contact operators
                  Orbital angular momentum around ( 0.0000  0.0000  0.0000 )
                  Atomic mean-field integrals
                  RI decomposed two-electron repulsion integrals stored Cholesky style
                   - acCD auxiliary basis
                   - CD Threshold:   0.10E-03

                   Integrals are discarded if absolute value <: 0.10E-13
                   Integral cutoff threshold is set to       <: 0.10E-15

++    Symmetry information:
      ---------------------

                    Character Table for C1 

                             E  
                    a        1  x, y, xy, Rz, z, xz, Ry, yz, Rx, I
--


++    Basis set information:
      ----------------------


      Basis set label: U.ANO-RCC...8S7P5D3F.

      Electronic valence basis set:
      ------------------
      Associated Effective Charge  92.000000 au
      Associated Actual Charge     92.000000 au
      Nuclear Model: Point charge

      Shell  nPrim  nBasis  Cartesian Spherical Contaminant
         s      26       8        X                  
         p      23       7        X                  
         d      17       5                 X         
         f      13       3                 X         

       Label   Cartesian Coordinates / Bohr

 U                  0.0000000000        0.0000000000        0.0000000000


      Basis set label: F.ANO-RCC...3S2P.

      Electronic valence basis set:
      ------------------
      Associated Effective Charge   9.000000 au
      Associated Actual Charge      9.000000 au
      Nuclear Model: Point charge

      Shell  nPrim  nBasis  Cartesian Spherical Contaminant
         s      14       3        X                  
         p       9       2        X                  

       Label   Cartesian Coordinates / Bohr

 F1                 0.0000000000        0.0000000000        3.9505801779
 F2                 0.0000000000        3.9505801779        0.0000000000
 F3                 3.9505801779        0.0000000000        0.0000000000
 F4                 0.0000000000        0.0000000000       -3.9505801779
 F5                 0.0000000000       -3.9505801779        0.0000000000
 F6                -3.9505801779        0.0000000000        0.0000000000
--


++    Molecular structure info:
      -------------------------

                    ************************************************ 
                    **** Cartesian Coordinates / Bohr, Angstrom **** 
                    ************************************************ 

     Center  Label                x              y              z                     x              y              z
        1      U                0.000000       0.000000       0.000000              0.000000       0.000000       0.000000
        2      F1               0.000000       0.000000       3.950580              0.000000       0.000000       2.090557
        3      F2               0.000000       3.950580       0.000000              0.000000       2.090557       0.000000
        4      F3               3.950580       0.000000       0.000000              2.090557       0.000000       0.000000
        5      F4               0.000000       0.000000      -3.950580              0.000000       0.000000      -2.090557
        6      F5               0.000000      -3.950580       0.000000              0.000000      -2.090557       0.000000
        7      F6              -3.950580       0.000000       0.000000             -2.090557       0.000000       0.000000

                    *************************************** 
                    *    InterNuclear Distances / Bohr    * 
                    *************************************** 

               1 U             2 F1            3 F2            4 F3            5 F4            6 F5    
    1 U        0.000000
    2 F1       3.950580        0.000000
    3 F2       3.950580        5.586964        0.000000
    4 F3       3.950580        5.586964        5.586964        0.000000
    5 F4       3.950580        7.901160        5.586964        5.586964        0.000000
    6 F5       3.950580        5.586964        7.901160        5.586964        5.586964        0.000000
    7 F6       3.950580        5.586964        5.586964        7.901160        5.586964        5.586964

               7 F6    
    7 F6       0.000000

                    ******************************************* 
                    *    InterNuclear Distances / Angstrom    * 
                    ******************************************* 

               1 U             2 F1            3 F2            4 F3            5 F4            6 F5    
    1 U        0.000000
    2 F1       2.090557        0.000000
    3 F2       2.090557        2.956494        0.000000
    4 F3       2.090557        2.956494        2.956494        0.000000
    5 F4       2.090557        4.181114        2.956494        2.956494        0.000000
    6 F5       2.090557        2.956494        4.181114        2.956494        2.956494        0.000000
    7 F6       2.090557        2.956494        2.956494        4.181114        2.956494        2.956494

               7 F6    
    7 F6       0.000000
--


++    Isotope specification:
      ----------------------

 Center
 Type   Z    A    mass (Da)
 --------------------------
    1  92  238   238.050788
    2   9   19    18.998403
--


++    Rigid rotor info:
      -----------------


                    Total mass (a) : 352.04121

                    Center of mass 
                          X          Y          Z   
                       0.00000    0.00000    0.00000

                    Reference system based on center of mass
                    Coordinates and Masses of Atoms, in au and A
                          X          Y          Z        Mass
                       0.00000    0.00000    0.00000  238.05079
                       0.00000    0.00000    3.95058   18.99840
                       0.00000    3.95058    0.00000   18.99840
                       3.95058    0.00000    0.00000   18.99840
                       0.00000    0.00000   -3.95058   18.99840
                       0.00000   -3.95058    0.00000   18.99840
                      -3.95058    0.00000    0.00000   18.99840

                    The Moment of Inertia Tensor / au
                                     X          Y        Z     
                    X             0.2162E+07
                    Y             0.0000E+00 0.2162E+07
                    Z             0.0000E+00 0.0000E+00 0.2162E+07

                    The Principal Axes and Moments of Inertia (au)
                    Eigenvalues : 0.2162E+07 0.2162E+07 0.2162E+07
                                     X'         Y'       Z'    
                    Eigenvectors:
                    X             0.1000E+01 0.0000E+00 0.0000E+00
                    Y             0.0000E+00 0.1000E+01 0.0000E+00
                    Z             0.0000E+00 0.0000E+00 0.1000E+01

                    The Rotational Constants
                            (cm-1)            (GHz)
                              0.051            1.522
                              0.051            1.522
                              0.051            1.522


                    *******************************************
                    *                                         *
                    * R I G I D - R O T O R   A N A L Y S I S *
                    *                                         *
                    *******************************************

                    j(Max):  5

                    Rotor Type: Linear Rotor
                    Asymmetry parameter:  0.000
                    Prolate = -1
                    Oblate  =  1


                    Rotational energies / cm-1

                    E(J= 0,kappa= 0) =        0.000

                    E(J= 1,kappa=-1) =        0.102
                    E(J= 1,kappa= 0) =        0.102
                    E(J= 1,kappa= 1) =        0.102

                    E(J= 2,kappa=-2) =        0.305
                    E(J= 2,kappa=-1) =        0.305
                    E(J= 2,kappa= 0) =        0.305
                    E(J= 2,kappa= 1) =        0.305
                    E(J= 2,kappa= 2) =        0.305

                    E(J= 3,kappa=-3) =        0.609
                    E(J= 3,kappa=-2) =        0.609
                    E(J= 3,kappa=-1) =        0.609
                    E(J= 3,kappa= 0) =        0.609
                    E(J= 3,kappa= 1) =        0.609
                    E(J= 3,kappa= 2) =        0.609
                    E(J= 3,kappa= 3) =        0.609

                    E(J= 4,kappa=-4) =        1.015
                    E(J= 4,kappa=-3) =        1.015
                    E(J= 4,kappa=-2) =        1.015
                    E(J= 4,kappa=-1) =        1.015
                    E(J= 4,kappa= 0) =        1.015
                    E(J= 4,kappa= 1) =        1.015
                    E(J= 4,kappa= 2) =        1.015
                    E(J= 4,kappa= 3) =        1.015
                    E(J= 4,kappa= 4) =        1.015

                    E(J= 5,kappa=-5) =        1.523
                    E(J= 5,kappa=-4) =        1.523
                    E(J= 5,kappa=-3) =        1.523
                    E(J= 5,kappa=-2) =        1.523
                    E(J= 5,kappa=-1) =        1.523
                    E(J= 5,kappa= 0) =        1.523
                    E(J= 5,kappa= 1) =        1.523
                    E(J= 5,kappa= 2) =        1.523
                    E(J= 5,kappa= 3) =        1.523
                    E(J= 5,kappa= 4) =        1.523
                    E(J= 5,kappa= 5) =        1.523
--


++    Primitive basis info:
      ---------------------


                    *****************************************************
                    ******** Primitive Basis Functions (Valence) ********
                    *****************************************************


 Basis set:U.ANO-RCC...8S7P5D3F.                                                           

                  Type         
                   s
           No.      Exponent    Contraction Coefficients
            1  0.544518911D+08   0.002207  -0.000915   0.000447  -0.000232   0.000115  -0.000051   0.000016  -0.000037
            2  0.138887214D+08   0.002164  -0.000899   0.000439  -0.000228   0.000113  -0.000050   0.000016  -0.000036
            3  0.440887342D+07   0.005958  -0.002479   0.001211  -0.000629   0.000311  -0.000137   0.000044  -0.000100
            4  0.151367240D+07   0.009076  -0.003797   0.001857  -0.000964   0.000477  -0.000210   0.000067  -0.000154
            5  0.553624062D+06   0.017983  -0.007570   0.003706  -0.001925   0.000952  -0.000420   0.000134  -0.000306
            6  0.211319244D+06   0.030281  -0.012906   0.006331  -0.003290   0.001628  -0.000718   0.000229  -0.000525
            7  0.836907483D+05   0.054730  -0.023737   0.011682  -0.006074   0.003007  -0.001327   0.000423  -0.000967
            8  0.340260317D+05   0.094299  -0.042181   0.020869  -0.010872   0.005383  -0.002374   0.000758  -0.001736
            9  0.140840491D+05   0.163076  -0.076524   0.038204  -0.019930   0.009876  -0.004360   0.001392  -0.003171
           10  0.593299899D+04   0.254935  -0.130043   0.065918  -0.034573   0.017147  -0.007561   0.002415  -0.005549
           11  0.255935768D+04   0.319851  -0.182978   0.094984  -0.049987   0.024838  -0.010987   0.003505  -0.007935
           12  0.113491825D+04   0.234760  -0.121706   0.060436  -0.031714   0.015693  -0.006869   0.002200  -0.005250
           13  0.515305346D+03   0.058677   0.237040  -0.190809   0.113046  -0.057836   0.025571  -0.008194   0.019406
           14  0.243174276D+03   0.000480   0.587936  -0.591185   0.369057  -0.192409   0.086363  -0.027572   0.061568
           15  0.118688499D+03   0.000691   0.307626  -0.292559   0.198349  -0.105580   0.046360  -0.014982   0.038741
           16  0.596159312D+02  -0.000431   0.023457   0.763828  -0.853134   0.519856  -0.238624   0.077144  -0.189743
           17  0.302863196D+02   0.000223   0.002133   0.597475  -0.837611   0.557735  -0.271566   0.087151  -0.180518
           18  0.152365445D+02  -0.000125  -0.001295   0.047232   0.866608  -0.851403   0.456425  -0.148545   0.320084
           19  0.768445704D+01   0.000074   0.000569   0.008069   0.777715  -1.157250   0.671198  -0.228245   0.619704
           20  0.364104506D+01  -0.000038  -0.000284  -0.004169   0.036778   0.992683  -0.821079   0.297451  -0.982326
           21  0.170325241D+01   0.000019   0.000153   0.001997   0.008458   0.774806  -0.965841   0.366790  -0.651158
           22  0.732595670D+00  -0.000009  -0.000069  -0.000954  -0.003919  -0.002690   0.944754  -0.448505   1.880927
           23  0.287288800D+00   0.000004   0.000032   0.000475   0.001896   0.015095   0.707583  -0.618431  -0.255726
           24  0.114915520D+00  -0.000002  -0.000017  -0.000251  -0.001043  -0.008074  -0.044001   0.345175  -1.692165
           25  0.459662000D-01   0.000001   0.000008   0.000116   0.000490   0.004222   0.035289   0.859489   0.567617
           26  0.183864800D-01  -0.000000  -0.000002  -0.000033  -0.000139  -0.001056  -0.007942   0.134330   0.708419

                  Type         
                   p
           No.      Exponent    Contraction Coefficients
           27  0.251401698D+08   0.000048  -0.000025   0.000013  -0.000006   0.000003  -0.000001   0.000003
           28  0.520815220D+07   0.000108  -0.000057   0.000030  -0.000014   0.000006  -0.000003   0.000006
           29  0.129404887D+07   0.000301  -0.000160   0.000083  -0.000040   0.000016  -0.000008   0.000018
           30  0.361903584D+06   0.000768  -0.000408   0.000213  -0.000102   0.000041  -0.000020   0.000046
           31  0.110991544D+06   0.002025  -0.001081   0.000565  -0.000270   0.000108  -0.000053   0.000124
           32  0.368485188D+05   0.005434  -0.002920   0.001528  -0.000732   0.000292  -0.000144   0.000332
           33  0.131854054D+05   0.014934  -0.008106   0.004254  -0.002033   0.000811  -0.000403   0.000935
           34  0.507898624D+04   0.040929  -0.022556   0.011879  -0.005706   0.002275  -0.001125   0.002572
           35  0.209686940D+04   0.106080  -0.060130   0.031906  -0.015276   0.006102  -0.003033   0.007074
           36  0.919258612D+03   0.234728  -0.138477   0.074224  -0.035877   0.014311  -0.007069   0.016058
           37  0.423117986D+03   0.373975  -0.230718   0.125304  -0.060104   0.024066  -0.012008   0.028450
           38  0.202380171D+03   0.326376  -0.142199   0.064769  -0.030781   0.012027  -0.005745   0.011210
           39  0.980735543D+02   0.103020   0.313716  -0.266799   0.146794  -0.059711   0.029221  -0.062855
           40  0.495491281D+02   0.002799   0.585786  -0.517625   0.274327  -0.113252   0.057713  -0.146609
           41  0.249717401D+02   0.001506   0.233589   0.110233  -0.106832   0.051422  -0.029062   0.097563
           42  0.124552362D+02  -0.000952   0.014016   0.763197  -0.689270   0.309886  -0.152425   0.314962
           43  0.612921286D+01   0.000453   0.001328   0.320164  -0.045119  -0.001627  -0.005185   0.079979
           44  0.281055699D+01  -0.000209  -0.000701   0.010383   0.883748  -0.614917   0.361022  -1.150723
           45  0.122934416D+01   0.000107   0.000258   0.002354   0.314747  -0.048316  -0.052043   0.906345
           46  0.507517360D+00  -0.000052  -0.000130  -0.001206  -0.003840   0.785202  -0.586153   0.868654
           47  0.203006940D+00   0.000026   0.000066   0.000592   0.006341   0.368838  -0.004663  -1.595943
           48  0.812027700D-01  -0.000012  -0.000031  -0.000277  -0.002956   0.009744   0.760119   0.272358
           49  0.324811100D-01   0.000004   0.000010   0.000088   0.000919   0.003938   0.344662   0.628087

                  Type         
                   d
           No.      Exponent    Contraction Coefficients
           50  0.140840491D+05   0.000339  -0.000190   0.000084  -0.000024   0.000041
           51  0.593299899D+04   0.000872  -0.000490   0.000213  -0.000061   0.000102
           52  0.255935768D+04   0.004215  -0.002378   0.001056  -0.000303   0.000513
           53  0.113491825D+04   0.017033  -0.009678   0.004245  -0.001213   0.002034
           54  0.515305346D+03   0.062911  -0.036240   0.016112  -0.004627   0.007802
           55  0.243174276D+03   0.179113  -0.105064   0.046472  -0.013297   0.022325
           56  0.118688499D+03   0.349346  -0.203161   0.090738  -0.026094   0.044123
           57  0.596159312D+02   0.388134  -0.178739   0.071312  -0.019952   0.033493
           58  0.302863196D+02   0.187638   0.171800  -0.111694   0.033378  -0.055638
           59  0.152365445D+02   0.027068   0.527352  -0.317826   0.095953  -0.167367
           60  0.768445704D+01   0.000841   0.376623  -0.109900   0.024710  -0.041164
           61  0.364104506D+01  -0.000038   0.068365   0.476215  -0.175555   0.333763
           62  0.170325241D+01   0.000029  -0.001525   0.543444  -0.200588   0.394302
           63  0.732595670D+00  -0.000021   0.000961   0.149892   0.187258  -0.879355
           64  0.287288800D+00   0.000009  -0.000461   0.001349   0.509522  -0.294309
           65  0.114915520D+00  -0.000005   0.000202   0.001750   0.422397   0.615664
           66  0.459662000D-01   0.000001  -0.000071  -0.000810   0.109799   0.298713

                  Type         
                   f
           No.      Exponent    Contraction Coefficients
           67  0.919258612D+03   0.000972  -0.000298   0.000257
           68  0.423117986D+03   0.003867  -0.001167   0.001035
           69  0.202380171D+03   0.020997  -0.006451   0.005591
           70  0.980735543D+02   0.073642  -0.022454   0.019780
           71  0.495491281D+02   0.192375  -0.059187   0.051389
           72  0.249717401D+02   0.345586  -0.099862   0.087011
           73  0.124552362D+02   0.381100  -0.090879   0.072338
           74  0.612921286D+01   0.222597   0.059440  -0.068418
           75  0.281055699D+01   0.047792   0.308814  -0.308131
           76  0.122934416D+01  -0.000241   0.439527  -0.308422
           77  0.507517360D+00   0.000844   0.338975   0.311278
           78  0.203006940D+00  -0.000342   0.144495   0.515077
           79  0.812027700D-01   0.000128   0.009551   0.301907


 Basis set:F.ANO-RCC...3S2P.                                                               

                  Type         
                   s
           No.      Exponent    Contraction Coefficients
           80  0.103109460D+06   0.000171  -0.000040   0.000042
           81  0.152810070D+05   0.000712  -0.000168   0.000173
           82  0.344153920D+04   0.002990  -0.000708   0.000734
           83  0.967094830D+03   0.011640  -0.002768   0.002844
           84  0.314035340D+03   0.039686  -0.009611   0.010085
           85  0.113442300D+03   0.112855  -0.028340   0.029653
           86  0.446447270D+02   0.247365  -0.068393   0.076011
           87  0.189428740D+02   0.367270  -0.123738   0.140260
           88  0.853274300D+01   0.289629  -0.151286   0.222496
           89  0.391940100D+01   0.077867  -0.009100  -0.125566
           90  0.156815700D+01   0.004562   0.371626  -1.042422
           91  0.623290000D+00   0.002469   0.550021  -0.011075
           92  0.240861000D+00   0.001106   0.209232   0.957466
           93  0.843010000D-01   0.000174   0.008075   0.150163

                  Type         
                   p
           No.      Exponent    Contraction Coefficients
           94  0.245330290D+03   0.001025  -0.000933
           95  0.569190050D+02   0.008344  -0.007760
           96  0.176045680D+02   0.040789  -0.037561
           97  0.627499500D+01   0.135137  -0.134638
           98  0.244703000D+01   0.279883  -0.308134
           99  0.995060000D+00   0.359797  -0.263474
          100  0.403973000D+00   0.305535   0.203218
          101  0.154810000D+00   0.135470   0.580288
          102  0.541840000D-01   0.028044   0.297140

  Number of primitives                                  517
  Number of basis functions                             129

--


++    SO/AO info:
      -----------

                    **************************************************
                    ********** Petite list Basis Functions ***********
                    **************************************************


           Basis functions generated by E  

 Basis Label        Type   Center
    1  U             1s       1
    2  U             2s       1
    3  U             3s       1
    4  U             4s       1
    5  U             5s       1
    6  U             6s       1
    7  U             7s       1
    8  U             8s       1
    9  U             2px      1
   10  U             3px      1
   11  U             4px      1
   12  U             5px      1
   13  U             6px      1
   14  U             7px      1
   15  U             8px      1
   16  U             2py      1
   17  U             3py      1
   18  U             4py      1
   19  U             5py      1
   20  U             6py      1
   21  U             7py      1
   22  U             8py      1
   23  U             2pz      1
   24  U             3pz      1
   25  U             4pz      1
   26  U             5pz      1
   27  U             6pz      1
   28  U             7pz      1
   29  U             8pz      1
   30  U             3d2-     1
   31  U             4d2-     1
   32  U             5d2-     1
   33  U             6d2-     1
   34  U             7d2-     1
   35  U             3d1-     1
   36  U             4d1-     1
   37  U             5d1-     1
   38  U             6d1-     1
   39  U             7d1-     1
   40  U             3d0      1
   41  U             4d0      1
   42  U             5d0      1
   43  U             6d0      1
   44  U             7d0      1
   45  U             3d1+     1
   46  U             4d1+     1
   47  U             5d1+     1
   48  U             6d1+     1
   49  U             7d1+     1
   50  U             3d2+     1
   51  U             4d2+     1
   52  U             5d2+     1
   53  U             6d2+     1
   54  U             7d2+     1
   55  U             4f3-     1
   56  U             5f3-     1
   57  U             6f3-     1
   58  U             4f2-     1
   59  U             5f2-     1
   60  U             6f2-     1
   61  U             4f1-     1
   62  U             5f1-     1
   63  U             6f1-     1
   64  U             4f0      1
   65  U             5f0      1
   66  U             6f0      1
   67  U             4f1+     1
   68  U             5f1+     1
   69  U             6f1+     1
   70  U             4f2+     1
   71  U             5f2+     1
   72  U             6f2+     1
   73  U             4f3+     1
   74  U             5f3+     1
   75  U             6f3+     1
   76  F1            1s       2
   77  F1            2s       2
   78  F1            3s       2
   79  F1            2px      2
   80  F1            3px      2
   81  F1            2py      2
   82  F1            3py      2
   83  F1            2pz      2
   84  F1            3pz      2
   85  F2            1s       3
   86  F2            2s       3
   87  F2            3s       3
   88  F2            2px      3
   89  F2            3px      3
   90  F2            2py      3
   91  F2            3py      3
   92  F2            2pz      3
   93  F2            3pz      3
   94  F3            1s       4
   95  F3            2s       4
   96  F3            3s       4
   97  F3            2px      4
   98  F3            3px      4
   99  F3            2py      4
  100  F3            3py      4
  101  F3            2pz      4
  102  F3            3pz      4
  103  F4            1s       5
  104  F4            2s       5
  105  F4            3s       5
  106  F4            2px      5
  107  F4            3px      5
  108  F4            2py      5
  109  F4            3py      5
  110  F4            2pz      5
  111  F4            3pz      5
  112  F5            1s       6
  113  F5            2s       6
  114  F5            3s       6
  115  F5            2px      6
  116  F5            3px      6
  117  F5            2py      6
  118  F5            3py      6
  119  F5            2pz      6
  120  F5            3pz      6
  121  F6            1s       7
  122  F6            2s       7
  123  F6            3s       7
  124  F6            2px      7
  125  F6            3px      7
  126  F6            2py      7
  127  F6            3py      7
  128  F6            2pz      7
  129  F6            3pz      7

      Basis set specifications :
      Symmetry species        a  
      Basis functions         129
--


            Nuclear Potential Energy           1462.26820648 au


      Basis set specifications :
      Symmetry species         a  
      Basis functions          129

  SO-integrals were calculated for  U: [Rn]7s^2 6d^1 5f^3        
  SO-integrals were calculated for  F: [He]2s^2 2p^5             
  SO-integrals were calculated for  F: [He]2s^2 2p^5             
  SO-integrals were calculated for  F: [He]2s^2 2p^5             
  SO-integrals were calculated for  F: [He]2s^2 2p^5             
  SO-integrals were calculated for  F: [He]2s^2 2p^5             
  SO-integrals were calculated for  F: [He]2s^2 2p^5             

Seward processing 2-center and 3-center ERIs

 2-center integrals:
      CPU time :    0.24 sec.
      Wall time:    0.27 sec.
 3-center integrals:
      CPU time :    3.84 sec.
      Wall time:    3.88 sec.
 Block-transpose:
      CPU time :    0.25 sec.
      Wall time:    0.29 sec.
 Diagonal vector:
      CPU time :    3.54 sec.
      Wall time:    3.63 sec.
      RI vectors               932



  Input file to MOLDEN was generated!

++ I/O STATISTICS
 
  I. General I/O information
  - - - - - - - - - - - - - - - - - - - - - - - - - - - - - - - - - - - - - - - - - - -
  Unit  Name          Flsize      Write/Read            MBytes           Write/Read
                      (MBytes)       Calls              In/Out           Time, sec.
  - - - - - - - - - - - - - - - - - - - - - - - - - - - - - - - - - - - - - - - - - - -
   1  RUNFILE           9.37 .     868/    7533 .     14.7/     64.8 .       0/       0
   2  NQGRID            2.78 .       2/       0 .      0.0/      0.0 .       0/       0
   3  AMAT09            0.00 .     188/     350 .      0.0/      0.0 .       0/       0
   4  QMAT09            0.00 .      26/      26 .      0.0/      0.0 .       0/       0
   5  ZMAT09            0.00 .     270/     368 .      0.0/      0.0 .       0/       0
   6  ONEREL           26.59 .      52/     794 .     53.6/     14.4 .       0/       0
   7  ONEINT            2.78 .      58/     108 .     33.0/     19.3 .       0/       0
   8  AVEC00            0.00 .     933/    1865 .      9.9/     19.9 .       0/       0
   9  ZMAT00            0.00 .       1/       0 .      6.6/      0.0 .       0/       0
  10  AMAT00            3.32 .       2/       1 .      6.6/      3.3 .       0/       0
  11  QMAT00            0.00 .       1/       1 .      3.3/      3.3 .       0/       0
  12  QVEC00            6.63 .     932/       1 .      6.6/      6.6 .       0/       0
  13  RVEC00           59.62 .     136/     136 .     59.6/     59.6 .       0/       0
  14  CHRED             0.13 .       4/       0 .      0.1/      0.0 .       0/       0
  15  CHVEC1           59.62 .       1/       0 .     59.6/      0.0 .       0/       0
  16  CHORST            0.04 .      12/       0 .      0.0/      0.0 .       0/       0
  17  CHOMAP            0.00 .       1/       0 .      0.0/      0.0 .       0/       0
  18  CHODIAG           0.06 .       1/       0 .      0.1/      0.0 .       0/       0
  - - - - - - - - - - - - - - - - - - - - - - - - - - - - - - - - - - - - - - - - - - -
   *  TOTAL           170.93 .    3488/   11183 .    253.9/    191.4 .       0/       0
  - - - - - - - - - - - - - - - - - - - - - - - - - - - - - - - - - - - - - - - - - - -
 
  II. I/O Access Patterns
  - - - - - - - - - - - - - - - - - - - -
  Unit  Name               % of random
                         Write/Read calls
  - - - - - - - - - - - - - - - - - - - -
   1  RUNFILE             28.6/  10.8
   2  NQGRID              50.0/   0.0
   3  AMAT09              13.8/  78.0
   4  QMAT09               0.0/ 100.0
   5  ZMAT09              38.5/  37.0
   6  ONEREL              96.2/   1.4
   7  ONEINT              96.6/  15.7
   8  AVEC00              99.9/  96.6
   9  ZMAT00               0.0/   0.0
  10  AMAT00              50.0/ 100.0
  11  QMAT00               0.0/ 100.0
  12  QVEC00               0.0/ 100.0
  13  RVEC00               0.0/   0.7
  14  CHRED                0.0/   0.0
  15  CHVEC1               0.0/   0.0
  16  CHORST               0.0/   0.0
  17  CHOMAP               0.0/   0.0
  18  CHODIAG              0.0/   0.0
  - - - - - - - - - - - - - - - - - - - -
--
--- Stop Module: seward at Tue May 12 16:27:31 2020 /rc=_RC_ALL_IS_WELL_ ---
*** files: uf6.GssOrb uf6.guessorb.h5 uf6.guessorb.molden xmldump
    saved to directory /projects/academic/jochena/gaurabga/TEST/mo-percent/UF6-NoSym
--- Module seward spent 58 seconds ---

>>> COPY uf6.GssOrb INPORB

--- Start Module: scf at Tue May 12 16:27:31 2020 ---

()()()()()()()()()()()()()()()()()()()()()()()()()()()()()()()()()()()()()()()()()()()()()()()()()()

                                                &SCF

                                   only a single process is used
                       available to each process: 55 GB of memory, 1 thread?
()()()()()()()()()()()()()()()()()()()()()()()()()()()()()()()()()()()()()()()()()()()()()()()()()()

++    Input section:
      --------------

      Header of the integral files:
      
       Integrals generated by seward 4.2.0  , Tue May 12 16:27:21 2020


      Cartesian coordinates in Angstrom:
      -----------------------------------------------------
      No.  Label        X            Y            Z        
      -----------------------------------------------------
       1   U          0.00000000   0.00000000   0.00000000
       2   F1         0.00000000   0.00000000   2.09055700
       3   F2         0.00000000   2.09055700   0.00000000
       4   F3         2.09055700   0.00000000   0.00000000
       5   F4         0.00000000   0.00000000  -2.09055700
       6   F5         0.00000000  -2.09055700   0.00000000
       7   F6        -2.09055700   0.00000000   0.00000000
      -----------------------------------------------------
      Nuclear repulsion energy = 1462.26820648
--

++    Orbital specifications:
      -----------------------

      Symmetry species               1
                                     a
      Frozen orbitals                0
      Occupied orbitals             73
      Secondary orbitals            56
      Deleted orbitals               0
      Total number of orbitals     129
      Number of basis functions    129
--

      Molecular charge                           0.000


      Numerical integration parameters
      ======================================
      Radial quadrature type:                         MHL       
      Size of radial grid:                            75
      Lebedev angular grid:                           29
      Angular grid prunned with the crowding factor:  3.00E+00
                                  and fading factor:  6.00E+00
      Screening threshold for integral computation:   1.00E-11
      Screening threshold for density computation:    1.00E-18
      Radial quadrature accuracy:                     1.00E-25
      Maximum batch size:                             128
      AO values are recomputed each iteration


      The same grid will be used for all iterations.

++    Optimization specifications:
      ----------------------------

      SCF Algorithm: LK-RI/DF
      D(i)-D(i-1) density differences are used
      Number of density matrices in core                5
      Maximum number of NDDO SCF iterations           400
      Maximum number of HF SCF iterations             400
      Threshold for SCF energy change            0.10E-08
      Threshold for density matrix               0.10E-03
      Threshold for Fock matrix                  0.15E-03
      Threshold for linear dependence            0.10E-08
      Threshold at which DIIS is turned on       0.15E+00
      Threshold at which QNR/C2DIIS is turned on 0.75E-01
      Threshold for Norm(delta) (QNR/C2DIIS)     0.20E-04
      DIIS extrapolation of the SCF procedure
      All orbitals punched on: SCFORB
--

      Input vectors read from INPORB
      Orbital file label: *Guess orbitals


++ Convergence information
                                   PBE        iterations: Energy and convergence statistics

Iter     Tot. PBE        One-elec.       Two-elec.     Energy      Max Dij or  Max Fij      DNorm      TNorm      AccCon     Time
         Energy          Energy          Energy        Change      Delta Norm                                                in Sec.

 The total and one-electron energies are shifted by a value of     28000. a.u.

   1  -556.196661247-14126.818423939 12108.353556214   0.00E+00    0.83E+00*   0.25E+00*    0.17E+02   0.20E+04   None         5.
   2  -466.985187133-15243.923607467 13314.670213856   0.89E+02*   0.79E+00*   0.21E+00*    0.11E+02   0.20E+04   EDIIS        6.
   3  -525.972554889-14831.363308671 12843.122547304  -0.59E+02*   0.63E+00*   0.78E-01*    0.78E+01   0.20E+04   EDIIS        6.
   4  -545.293942612-14556.273668341 12548.711519251  -0.19E+02*   0.55E+00*   0.57E-01*    0.60E+01   0.20E+04   EDIIS        6.
   5  -556.370063090-14328.094504617 12309.456235050  -0.11E+02*   0.62E+00*   0.64E-01*    0.40E+01   0.20E+04   EDIIS        6.
   6  -557.258473412-14257.376216551 12237.849536661  -0.89E+00*   0.66E+00*   0.31E+00*    0.28E+01   0.20E+04   EDIIS        6.
   7  -555.635919694-14119.681894787 12101.777768615   0.16E+01*   0.31E+00*   0.11E+00*    0.40E+01   0.20E+04   EDIIS        6.
   8  -557.615909997-14185.664395705 12165.780279230  -0.20E+01*   0.25E+00*   0.42E-01*    0.13E+01   0.20E+04   EDIIS        6.
   9  -557.673857165-14287.314377595 12267.372313952  -0.58E-01*   0.13E+00*   0.32E-01*    0.13E+01   0.20E+04   EDIIS        6.
  10  -557.833226053-14217.739932308 12197.638499776  -0.16E+00*   0.48E+00*   0.49E-01*    0.81E+00   0.20E+04   c2DIIS       6.
  11  -557.128101151-14285.704358550 12266.308050921   0.71E+00*   0.26E+00*   0.26E-01*    0.25E+01   0.20E+04   c2DIIS       6.
  12  -557.705218879-14273.181998273 12253.208572916  -0.58E+00*   0.17E+00*   0.22E-01*    0.12E+01   0.20E+04   c2DIIS       6.
  13  -557.852928402-14240.634400897 12220.513266017  -0.15E+00*   0.57E-01*   0.14E-01*    0.72E+00   0.20E+04   c2DIIS       6.
  14  -557.901310959-14230.087504582 12209.917987144  -0.48E-01*   0.16E-01*   0.49E-02*    0.35E+00   0.20E+04   c2DIIS       6.
  15  -557.910875506-14237.821232542 12217.642150558  -0.96E-02*   0.17E+00*   0.13E-01*    0.85E-01   0.20E+04   QNRc2DIIS    6.
  16  -557.830798104-14208.572259079 12188.473254497   0.80E-01*   0.15E+00*   0.97E-01*    0.64E+00   0.20E+04   QNRc2DIIS    6.
  17  -557.911567358-14235.501252375 12215.321478540  -0.81E-01*   0.17E-01*   0.62E-02*    0.56E+00   0.20E+04   QNRc2DIIS    6.
  18  -557.912149520-14235.012259638 12214.831903640  -0.58E-03*   0.33E-02*   0.16E-02*    0.68E-01   0.20E+04   QNRc2DIIS    6.
  19  -557.912185362-14235.014919694 12214.834527854  -0.36E-04*   0.46E-02*   0.88E-03*    0.14E-01   0.20E+04   QNRc2DIIS    6.
  20  -557.912143738-14234.640171373 12214.459821157   0.42E-04*   0.81E-02*   0.22E-02*    0.18E-01   0.20E+04   QNRc2DIIS    6.
  21  -557.912193071-14235.228768965 12215.048369416  -0.49E-04*   0.51E-03*   0.18E-03*    0.32E-01   0.20E+04   QNRc2DIIS    6.
  22  -557.912193637-14235.181134216 12215.000734101  -0.57E-06*   0.65E-04*   0.12E-04     0.20E-02   0.20E+04   QNRc2DIIS    6.
  23  -557.912193640-14235.177737590 12214.997337472  -0.29E-08*   0.22E-04*   0.52E-05     0.30E-03   0.20E+04   QNRc2DIIS    6.
  24  -557.912193640-14235.178377397 12214.997977278  -0.38E-09    0.26E-05    0.49E-06     0.97E-04   0.20E+04   QNRc2DIIS    6.

       Convergence after 24 Macro Iterations
--

 *****************************************************************************************************************************
 *                                                                                                                           *
 *                                             SCF/KS-DFT Program, Final results                                             *
 *                                                                                                                           *
 *                                                                                                                           *
 *                                                                                                                           *
 *                                                       Final Results                                                       *
 *                                                                                                                           *
 *****************************************************************************************************************************

::    Total KS-DFT energy                          -28557.9121936403
      One-electron energy                          -42235.1783773966
      Two-electron energy                           12214.9979772783
      Nuclear repulsion energy                       1462.2682064779
      Kinetic energy (interpolated)                 52235.6612203174
      Virial theorem                                    0.5467129453
      Total spin, S(S+1)                                0.0000000000
      Total spin, S                                     0.0000000000
      Max non-diagonal density matrix element           0.0000018571
      Max non-diagonal Fock matrix element              0.0000001537


      Integrated DFT Energy                          -548.8204054961
      Integrated number of electrons                     145.9999269    
      Integrated |grad|                                  1975.673813    
      Total number of prunned grid points                    88224
      Number of grid points per SO-integral                  96303.7


      All orbitals with orbital energies smaller than  E(LUMO)+0.5 are printed

++    Molecular orbitals:
      -------------------

      Title: RKS-DFT orbitals

      Molecular orbitals for symmetry species 1: a  

          Some orbital energies have been scaled by powers of 10, the power is written right after the orbital index


          Orbital            1 (1)     2         3         4         5         6         7         8         9        10    
          Energy         -422.8076 -791.8087 -664.6229 -664.6229 -664.6229 -200.2659 -164.6792 -164.6792 -164.6792 -131.1793
          Occ. No.          2.0000    2.0000    2.0000    2.0000    2.0000    2.0000    2.0000    2.0000    2.0000    2.0000

        1 U      1s         1.0000   -0.0002    0.0000   -0.0000    0.0000    0.0001    0.0000    0.0000   -0.0000   -0.0000
        2 U      2s         0.0002    1.0000   -0.0000   -0.0000    0.0000   -0.0003    0.0000    0.0000   -0.0000   -0.0000
        3 U      3s        -0.0001    0.0003    0.0000   -0.0000   -0.0000    1.0000    0.0000   -0.0000   -0.0000   -0.0000
        4 U      4s         0.0001   -0.0003   -0.0000    0.0000   -0.0000    0.0009   -0.0000    0.0000    0.0000    0.0000
        5 U      5s        -0.0000    0.0002    0.0000   -0.0000    0.0000   -0.0011    0.0000    0.0000   -0.0000   -0.0000
        6 U      6s        -0.0000    0.0000    0.0000    0.0000    0.0000   -0.0001    0.0000   -0.0000    0.0000    0.0000
        7 U      7s        -0.0000    0.0001    0.0000   -0.0000    0.0000   -0.0007    0.0000    0.0000    0.0000   -0.0000
        8 U      8s         0.0000   -0.0001    0.0000   -0.0000   -0.0000    0.0007   -0.0000    0.0000    0.0000    0.0000
        9 U      2px       -0.0000    0.0000    1.0000   -0.0034   -0.0027   -0.0000    0.0004   -0.0000   -0.0000   -0.0000
       10 U      3px        0.0000   -0.0000   -0.0004    0.0000    0.0000   -0.0000    1.0000   -0.0026   -0.0023   -0.0000
       11 U      4px        0.0000    0.0000   -0.0000    0.0000    0.0000    0.0000   -0.0002    0.0000    0.0000    0.0000
       12 U      5px       -0.0000   -0.0000    0.0000   -0.0000   -0.0000   -0.0000   -0.0006    0.0000    0.0000   -0.0000
       13 U      6px        0.0000   -0.0000   -0.0000    0.0000    0.0000   -0.0000    0.0001   -0.0000   -0.0000   -0.0000
       14 U      7px        0.0000   -0.0000    0.0000   -0.0000   -0.0000   -0.0000   -0.0003    0.0000    0.0000   -0.0000
       15 U      8px       -0.0000    0.0000   -0.0000    0.0000    0.0000    0.0000    0.0005   -0.0000   -0.0000   -0.0000
       16 U      2py        0.0000    0.0000   -0.0026    0.0227   -0.9997   -0.0000   -0.0000    0.0000   -0.0004   -0.0000
       17 U      3py       -0.0000   -0.0000    0.0000   -0.0000    0.0004   -0.0000   -0.0023    0.0149   -0.9999   -0.0000
       18 U      4py        0.0000    0.0000    0.0000   -0.0000    0.0000    0.0000    0.0000   -0.0000    0.0002    0.0000
       19 U      5py       -0.0000   -0.0000   -0.0000    0.0000   -0.0000   -0.0000    0.0000   -0.0000    0.0006   -0.0000
       20 U      6py       -0.0000   -0.0000    0.0000   -0.0000    0.0000   -0.0000   -0.0000    0.0000   -0.0001   -0.0000
       21 U      7py       -0.0000   -0.0000   -0.0000    0.0000   -0.0000   -0.0000    0.0000   -0.0000    0.0003   -0.0000
       22 U      8py        0.0000    0.0000    0.0000   -0.0000    0.0000    0.0000   -0.0000    0.0000   -0.0005    0.0000
       23 U      2pz        0.0000    0.0000    0.0035    0.9997    0.0227    0.0000    0.0000    0.0004    0.0000    0.0000
       24 U      3pz       -0.0000   -0.0000   -0.0000   -0.0004   -0.0000    0.0000    0.0027    0.9999    0.0149    0.0000
       25 U      4pz        0.0000    0.0000   -0.0000   -0.0000   -0.0000    0.0000   -0.0000   -0.0002   -0.0000   -0.0000
       26 U      5pz       -0.0000   -0.0000    0.0000    0.0000    0.0000   -0.0000   -0.0000   -0.0006   -0.0000   -0.0000
       27 U      6pz        0.0000    0.0000   -0.0000   -0.0000   -0.0000    0.0000    0.0000    0.0001    0.0000    0.0000
       28 U      7pz       -0.0000   -0.0000    0.0000    0.0000    0.0000   -0.0000   -0.0000   -0.0003   -0.0000   -0.0000
       29 U      8pz        0.0000    0.0000   -0.0000   -0.0000   -0.0000   -0.0000    0.0000    0.0005    0.0000    0.0000
       30 U      3d2-      -0.0000   -0.0000    0.0000    0.0000   -0.0000   -0.0000    0.0000   -0.0000    0.0000    0.0158
       31 U      4d2-       0.0000    0.0000   -0.0000    0.0000    0.0000   -0.0000    0.0000   -0.0000    0.0000   -0.0000
       32 U      5d2-      -0.0000   -0.0000   -0.0000   -0.0000   -0.0000    0.0000   -0.0000   -0.0000    0.0000   -0.0000
       33 U      6d2-       0.0000   -0.0000   -0.0000   -0.0000   -0.0000    0.0000   -0.0000    0.0000   -0.0000   -0.0000
       34 U      7d2-      -0.0000   -0.0000    0.0000   -0.0000   -0.0000    0.0000   -0.0000    0.0000   -0.0000   -0.0000
       35 U      3d1-       0.0000    0.0000   -0.0000    0.0000    0.0000    0.0000   -0.0000    0.0000   -0.0000   -0.0023
       36 U      4d1-      -0.0000   -0.0000    0.0000   -0.0000   -0.0000    0.0000   -0.0000    0.0000   -0.0000    0.0000
       37 U      5d1-       0.0000    0.0000   -0.0000    0.0000   -0.0000   -0.0000    0.0000   -0.0000    0.0000    0.0000
       38 U      6d1-       0.0000    0.0000    0.0000    0.0000   -0.0000   -0.0000   -0.0000    0.0000    0.0000    0.0000
       39 U      7d1-       0.0000    0.0000    0.0000    0.0000   -0.0000   -0.0000    0.0000   -0.0000    0.0000    0.0000
       40 U      3d0       -0.0000   -0.0000    0.0000    0.0000   -0.0000   -0.0000    0.0000    0.0000   -0.0000    0.0000
       41 U      4d0        0.0000    0.0000   -0.0000   -0.0000    0.0000   -0.0000   -0.0000    0.0000    0.0000   -0.0000
       42 U      5d0       -0.0000   -0.0000    0.0000   -0.0000    0.0000    0.0000    0.0000   -0.0000   -0.0000   -0.0000
       43 U      6d0        0.0000    0.0000    0.0000   -0.0000    0.0000   -0.0000    0.0000    0.0000   -0.0000    0.0000
       44 U      7d0       -0.0000   -0.0000    0.0000   -0.0000    0.0000    0.0000    0.0000    0.0000   -0.0000   -0.0000
       45 U      3d1+      -0.0000    0.0000    0.0000   -0.0000   -0.0000    0.0000    0.0000   -0.0000   -0.0000    0.9999
       46 U      4d1+      -0.0000   -0.0000   -0.0000    0.0000   -0.0000    0.0000    0.0000    0.0000    0.0000   -0.0015
       47 U      5d1+       0.0000    0.0000   -0.0000    0.0000   -0.0000   -0.0000   -0.0000   -0.0000    0.0000   -0.0002
       48 U      6d1+      -0.0000    0.0000    0.0000   -0.0000   -0.0000    0.0000    0.0000    0.0000    0.0000   -0.0000
       49 U      7d1+       0.0000    0.0000    0.0000    0.0000   -0.0000   -0.0000    0.0000    0.0000    0.0000   -0.0002
       50 U      3d2+       0.0000    0.0000   -0.0000   -0.0000    0.0000    0.0000   -0.0000   -0.0000    0.0000    0.0000
       51 U      4d2+      -0.0000   -0.0000    0.0000    0.0000   -0.0000    0.0000   -0.0000    0.0000    0.0000   -0.0000
       52 U      5d2+       0.0000    0.0000    0.0000   -0.0000    0.0000   -0.0000    0.0000   -0.0000   -0.0000   -0.0000
       53 U      6d2+      -0.0000   -0.0000   -0.0000    0.0000    0.0000    0.0000   -0.0000   -0.0000   -0.0000    0.0000
       54 U      7d2+       0.0000    0.0000   -0.0000    0.0000   -0.0000   -0.0000    0.0000   -0.0000   -0.0000   -0.0000
       55 U      4f3-       0.0000   -0.0000   -0.0000    0.0000   -0.0000   -0.0000   -0.0000    0.0000   -0.0000   -0.0000
       56 U      5f3-       0.0000    0.0000    0.0000   -0.0000    0.0000    0.0000   -0.0000    0.0000   -0.0001   -0.0000
       57 U      6f3-       0.0000    0.0000    0.0000   -0.0000    0.0000    0.0000   -0.0000    0.0000   -0.0001   -0.0000
       58 U      4f2-       0.0000   -0.0000    0.0000   -0.0000   -0.0000   -0.0000    0.0000   -0.0000   -0.0000    0.0000
       59 U      5f2-      -0.0000    0.0000   -0.0000    0.0000    0.0000   -0.0000   -0.0000    0.0000    0.0000   -0.0000
       60 U      6f2-       0.0000   -0.0000    0.0000   -0.0000   -0.0000    0.0000    0.0000   -0.0000   -0.0000    0.0000
       61 U      4f1-       0.0000    0.0000   -0.0000    0.0000   -0.0000    0.0000   -0.0000    0.0000   -0.0000   -0.0000
       62 U      5f1-       0.0000    0.0000    0.0000   -0.0000    0.0000    0.0000   -0.0000    0.0000   -0.0000    0.0000
       63 U      6f1-       0.0000    0.0000    0.0000   -0.0000    0.0000    0.0000   -0.0000    0.0000   -0.0001   -0.0000
       64 U      4f0       -0.0000   -0.0000   -0.0000   -0.0000   -0.0000    0.0000   -0.0000   -0.0000   -0.0000    0.0000
       65 U      5f0       -0.0000   -0.0000    0.0000    0.0000    0.0000    0.0000   -0.0000   -0.0001   -0.0000   -0.0000
       66 U      6f0       -0.0000   -0.0000    0.0000    0.0000    0.0000    0.0000   -0.0000   -0.0001   -0.0000    0.0000
       67 U      4f1+       0.0000    0.0000    0.0000   -0.0000   -0.0000   -0.0000    0.0000   -0.0000   -0.0000    0.0000
       68 U      5f1+      -0.0000    0.0000   -0.0000    0.0000    0.0000    0.0000    0.0000   -0.0000   -0.0000   -0.0000
       69 U      6f1+      -0.0000    0.0000   -0.0000    0.0000    0.0000    0.0000    0.0001   -0.0000   -0.0000    0.0000
       70 U      4f2+      -0.0000    0.0000    0.0000    0.0000    0.0000   -0.0000    0.0000    0.0000    0.0000   -0.0000
       71 U      5f2+      -0.0000    0.0000   -0.0000   -0.0000   -0.0000    0.0000   -0.0000   -0.0000   -0.0000    0.0000
       72 U      6f2+      -0.0000    0.0000    0.0000    0.0000    0.0000    0.0000    0.0000    0.0000    0.0000   -0.0000
       73 U      4f3+       0.0000   -0.0000   -0.0000    0.0000    0.0000   -0.0000   -0.0000    0.0000    0.0000   -0.0000
       74 U      5f3+       0.0000   -0.0000    0.0000   -0.0000   -0.0000   -0.0000   -0.0001    0.0000    0.0000   -0.0000
       75 U      6f3+       0.0000   -0.0000    0.0000   -0.0000   -0.0000   -0.0000   -0.0001    0.0000    0.0000   -0.0000
       76 F1     1s         0.0000   -0.0000   -0.0000   -0.0000   -0.0000    0.0000    0.0000    0.0000    0.0000    0.0000
       77 F1     2s         0.0000   -0.0000   -0.0000   -0.0000   -0.0000    0.0001    0.0000    0.0002    0.0000    0.0000
       78 F1     3s         0.0000   -0.0000   -0.0000   -0.0000   -0.0000    0.0001    0.0000    0.0001    0.0000    0.0000
       79 F1     2px        0.0000   -0.0000    0.0000   -0.0000   -0.0000    0.0000   -0.0000    0.0000    0.0000    0.0000
       80 F1     3px       -0.0000   -0.0000    0.0000   -0.0000   -0.0000    0.0000   -0.0000    0.0000    0.0000    0.0001
       81 F1     2py       -0.0000   -0.0000   -0.0000    0.0000   -0.0000    0.0000    0.0000   -0.0000    0.0000   -0.0000
       82 F1     3py       -0.0000   -0.0000   -0.0000    0.0000   -0.0000    0.0000    0.0000   -0.0000    0.0000   -0.0000
       83 F1     2pz       -0.0000    0.0000    0.0000    0.0000    0.0000   -0.0001   -0.0000   -0.0002   -0.0000    0.0000
       84 F1     3pz       -0.0000    0.0000    0.0000    0.0000    0.0000   -0.0002   -0.0000   -0.0002   -0.0000    0.0000
       85 F2     1s         0.0000   -0.0000    0.0000   -0.0000    0.0000    0.0000   -0.0000    0.0000   -0.0000   -0.0000
       86 F2     2s         0.0000   -0.0000    0.0000   -0.0000    0.0000    0.0001   -0.0000    0.0000   -0.0002   -0.0000
       87 F2     3s         0.0000   -0.0000    0.0000   -0.0000    0.0000    0.0001   -0.0000    0.0000   -0.0001   -0.0000
       88 F2     2px        0.0000    0.0000    0.0000   -0.0000   -0.0000   -0.0000   -0.0000    0.0000    0.0000    0.0000
       89 F2     3px        0.0000    0.0000    0.0000   -0.0000   -0.0000   -0.0000   -0.0000    0.0000    0.0000    0.0000
       90 F2     2py       -0.0000    0.0000   -0.0000    0.0000   -0.0000   -0.0001    0.0000   -0.0000    0.0002   -0.0000
       91 F2     3py       -0.0000    0.0000   -0.0000    0.0000   -0.0000   -0.0002    0.0000   -0.0000    0.0002   -0.0000
       92 F2     2pz       -0.0000   -0.0000    0.0000    0.0000    0.0000    0.0000   -0.0000   -0.0000   -0.0000   -0.0000
       93 F2     3pz       -0.0000   -0.0000    0.0000    0.0000    0.0000    0.0000   -0.0000   -0.0000   -0.0000   -0.0000
       94 F3     1s         0.0000   -0.0000   -0.0000    0.0000    0.0000    0.0000    0.0000   -0.0000   -0.0000    0.0000
       95 F3     2s         0.0000   -0.0000   -0.0000    0.0000    0.0000    0.0001    0.0002   -0.0000   -0.0000    0.0000
       96 F3     3s         0.0000   -0.0000   -0.0000    0.0000    0.0000    0.0001    0.0001   -0.0000   -0.0000    0.0000
       97 F3     2px       -0.0000    0.0000    0.0000   -0.0000   -0.0000   -0.0001   -0.0002    0.0000    0.0000    0.0000
       98 F3     3px       -0.0000    0.0000    0.0000   -0.0000   -0.0000   -0.0002   -0.0002    0.0000    0.0000    0.0000
       99 F3     2py       -0.0000    0.0000   -0.0000    0.0000   -0.0000   -0.0000    0.0000   -0.0000    0.0000    0.0000
      100 F3     3py       -0.0000    0.0000   -0.0000    0.0000   -0.0000   -0.0000    0.0000   -0.0000    0.0000    0.0000
      101 F3     2pz       -0.0000   -0.0000    0.0000    0.0000    0.0000    0.0000   -0.0000   -0.0000   -0.0000    0.0000
      102 F3     3pz       -0.0000   -0.0000    0.0000    0.0000    0.0000    0.0000   -0.0000   -0.0000   -0.0000    0.0001
      103 F4     1s         0.0000   -0.0000    0.0000    0.0000    0.0000    0.0000   -0.0000   -0.0000   -0.0000    0.0000
      104 F4     2s         0.0000   -0.0000    0.0000    0.0000    0.0000    0.0001   -0.0000   -0.0002   -0.0000    0.0000
      105 F4     3s         0.0000   -0.0000    0.0000    0.0000    0.0000    0.0001   -0.0000   -0.0001   -0.0000    0.0000
      106 F4     2px       -0.0000    0.0000    0.0000   -0.0000   -0.0000   -0.0000   -0.0000    0.0000    0.0000   -0.0000
      107 F4     3px        0.0000    0.0000    0.0000   -0.0000   -0.0000    0.0000   -0.0000    0.0000    0.0000   -0.0001
      108 F4     2py        0.0000    0.0000   -0.0000    0.0000   -0.0000   -0.0000    0.0000   -0.0000    0.0000    0.0000
      109 F4     3py        0.0000    0.0000   -0.0000    0.0000   -0.0000   -0.0000    0.0000   -0.0000    0.0000    0.0000
      110 F4     2pz        0.0000   -0.0000    0.0000    0.0000    0.0000    0.0001   -0.0000   -0.0002   -0.0000   -0.0000
      111 F4     3pz        0.0000   -0.0000    0.0000    0.0000    0.0000    0.0002   -0.0000   -0.0002   -0.0000   -0.0000
      112 F5     1s         0.0000   -0.0000   -0.0000    0.0000   -0.0000    0.0000    0.0000   -0.0000    0.0000   -0.0000
      113 F5     2s         0.0000   -0.0000   -0.0000    0.0000   -0.0000    0.0001    0.0000   -0.0000    0.0002   -0.0000
      114 F5     3s         0.0000   -0.0000   -0.0000    0.0000   -0.0000    0.0001    0.0000   -0.0000    0.0001   -0.0000
      115 F5     2px       -0.0000   -0.0000    0.0000   -0.0000   -0.0000    0.0000   -0.0000    0.0000    0.0000   -0.0000
      116 F5     3px       -0.0000   -0.0000    0.0000   -0.0000   -0.0000    0.0000   -0.0000    0.0000    0.0000   -0.0000
      117 F5     2py        0.0000   -0.0000   -0.0000    0.0000   -0.0000    0.0001    0.0000   -0.0000    0.0002    0.0000
      118 F5     3py        0.0000   -0.0000   -0.0000    0.0000   -0.0000    0.0002    0.0000   -0.0000    0.0002    0.0000
      119 F5     2pz        0.0000    0.0000    0.0000    0.0000    0.0000   -0.0000   -0.0000   -0.0000   -0.0000    0.0000
      120 F5     3pz        0.0000    0.0000    0.0000    0.0000    0.0000   -0.0000   -0.0000   -0.0000   -0.0000    0.0000
      121 F6     1s         0.0000   -0.0000    0.0000   -0.0000   -0.0000    0.0000   -0.0000    0.0000    0.0000    0.0000
      122 F6     2s         0.0000   -0.0000    0.0000   -0.0000   -0.0000    0.0001   -0.0002    0.0000    0.0000    0.0000
      123 F6     3s         0.0000   -0.0000    0.0000   -0.0000   -0.0000    0.0001   -0.0001    0.0000    0.0000    0.0000
      124 F6     2px        0.0000   -0.0000    0.0000   -0.0000   -0.0000    0.0001   -0.0002    0.0000    0.0000   -0.0000
      125 F6     3px        0.0000   -0.0000    0.0000   -0.0000   -0.0000    0.0002   -0.0002    0.0000    0.0000   -0.0000
      126 F6     2py       -0.0000   -0.0000   -0.0000    0.0000   -0.0000    0.0000    0.0000   -0.0000    0.0000   -0.0000
      127 F6     3py       -0.0000   -0.0000   -0.0000    0.0000   -0.0000    0.0000    0.0000   -0.0000    0.0000   -0.0000
      128 F6     2pz        0.0000    0.0000    0.0000    0.0000    0.0000   -0.0000   -0.0000   -0.0000   -0.0000   -0.0000
      129 F6     3pz       -0.0000    0.0000    0.0000    0.0000    0.0000   -0.0000   -0.0000   -0.0000   -0.0000   -0.0001

          Orbital           11        12        13        14        15        16        17        18        19        20    
          Energy         -131.1793 -131.1793 -131.1783 -131.1783  -51.2418  -39.5100  -39.5100  -39.5100  -26.9426  -26.9426
          Occ. No.          2.0000    2.0000    2.0000    2.0000    2.0000    2.0000    2.0000    2.0000    2.0000    2.0000

        1 U      1s        -0.0000   -0.0000   -0.0000   -0.0000   -0.0001   -0.0000   -0.0000    0.0000    0.0000    0.0000
        2 U      2s        -0.0000   -0.0000   -0.0000   -0.0000    0.0003   -0.0000   -0.0000    0.0000    0.0000    0.0000
        3 U      3s        -0.0000   -0.0000   -0.0000   -0.0000   -0.0010   -0.0000   -0.0000    0.0000   -0.0000   -0.0000
        4 U      4s         0.0000    0.0000    0.0000    0.0000    1.0001   -0.0000    0.0000    0.0000   -0.0000   -0.0000
        5 U      5s        -0.0000   -0.0000   -0.0000   -0.0000    0.0023   -0.0000   -0.0000    0.0000    0.0000    0.0000
        6 U      6s         0.0000    0.0000    0.0000    0.0000   -0.0001   -0.0000   -0.0000    0.0000   -0.0000   -0.0000
        7 U      7s        -0.0000   -0.0000   -0.0000   -0.0000    0.0011   -0.0000   -0.0000   -0.0000    0.0000    0.0000
        8 U      8s         0.0000    0.0000    0.0000    0.0000   -0.0011    0.0000   -0.0000    0.0000   -0.0000   -0.0000
        9 U      2px       -0.0000   -0.0000    0.0000   -0.0000    0.0000    0.0000   -0.0000   -0.0000    0.0000   -0.0000
       10 U      3px        0.0000    0.0000    0.0000   -0.0000    0.0000    0.0002   -0.0000   -0.0000   -0.0000    0.0000
       11 U      4px       -0.0000   -0.0000    0.0000   -0.0000    0.0000    1.0000   -0.0028   -0.0025   -0.0000    0.0000
       12 U      5px        0.0000    0.0000   -0.0000    0.0000   -0.0000    0.0036   -0.0000   -0.0000    0.0000   -0.0000
       13 U      6px        0.0000    0.0000    0.0000   -0.0000    0.0000   -0.0005    0.0000    0.0000    0.0000    0.0000
       14 U      7px        0.0000    0.0000    0.0000    0.0000    0.0000    0.0013   -0.0000   -0.0000    0.0000   -0.0000
       15 U      8px       -0.0000   -0.0000   -0.0000    0.0000   -0.0000   -0.0022    0.0000    0.0000   -0.0000    0.0000
       16 U      2py        0.0000   -0.0000    0.0000   -0.0000   -0.0000   -0.0000    0.0000   -0.0000   -0.0000   -0.0000
       17 U      3py       -0.0000   -0.0000    0.0000    0.0000    0.0000   -0.0000    0.0000   -0.0002    0.0000   -0.0000
       18 U      4py        0.0000    0.0000    0.0000   -0.0000    0.0000   -0.0025    0.0181   -0.9998    0.0000   -0.0000
       19 U      5py        0.0000    0.0000   -0.0000    0.0000   -0.0000   -0.0000    0.0001   -0.0036    0.0000    0.0000
       20 U      6py        0.0000   -0.0000   -0.0000   -0.0000   -0.0000    0.0000   -0.0000    0.0005    0.0000   -0.0000
       21 U      7py       -0.0000   -0.0000   -0.0000   -0.0000   -0.0000   -0.0000    0.0000   -0.0013    0.0000   -0.0000
       22 U      8py       -0.0000    0.0000    0.0000   -0.0000   -0.0000    0.0000   -0.0000    0.0022   -0.0000   -0.0000
       23 U      2pz       -0.0000   -0.0000    0.0000   -0.0000   -0.0000    0.0000    0.0000    0.0000   -0.0000    0.0000
       24 U      3pz       -0.0000   -0.0000    0.0000   -0.0000   -0.0000    0.0000    0.0002    0.0000   -0.0000   -0.0000
       25 U      4pz        0.0000    0.0000   -0.0000   -0.0000   -0.0000    0.0028    0.9998    0.0181    0.0000    0.0000
       26 U      5pz       -0.0000   -0.0000    0.0000    0.0000    0.0000    0.0000    0.0036    0.0001   -0.0000   -0.0000
       27 U      6pz       -0.0000   -0.0000   -0.0000   -0.0000   -0.0000   -0.0000   -0.0005   -0.0000    0.0000   -0.0000
       28 U      7pz       -0.0000   -0.0000   -0.0000   -0.0000   -0.0000    0.0000    0.0013    0.0000   -0.0000   -0.0000
       29 U      8pz        0.0000    0.0000   -0.0000    0.0000   -0.0000   -0.0000   -0.0022   -0.0000    0.0000    0.0000
       30 U      3d2-      -0.9999   -0.0027    0.0000   -0.0000    0.0000   -0.0000    0.0000   -0.0000    0.0000   -0.0015
       31 U      4d2-       0.0015    0.0000   -0.0000    0.0000   -0.0000    0.0000    0.0000    0.0000    0.0201   -0.9998
       32 U      5d2-       0.0002    0.0000   -0.0000    0.0000   -0.0000    0.0000   -0.0000    0.0000    0.0001   -0.0037
       33 U      6d2-       0.0000    0.0000   -0.0000    0.0000   -0.0000   -0.0000   -0.0000    0.0000    0.0000   -0.0003
       34 U      7d2-       0.0002    0.0000   -0.0000    0.0000   -0.0000    0.0000   -0.0000    0.0000    0.0001   -0.0026
       35 U      3d1-      -0.0028    1.0000    0.0000    0.0000   -0.0000    0.0000   -0.0000    0.0000   -0.0000   -0.0000
       36 U      4d1-       0.0000   -0.0015   -0.0000   -0.0000    0.0000    0.0000    0.0000   -0.0000   -0.0026   -0.0029
       37 U      5d1-       0.0000   -0.0002   -0.0000   -0.0000    0.0000    0.0000    0.0000    0.0000   -0.0000   -0.0000
       38 U      6d1-       0.0000   -0.0000   -0.0000   -0.0000    0.0000   -0.0000   -0.0000   -0.0000   -0.0000   -0.0000
       39 U      7d1-       0.0000   -0.0002   -0.0000   -0.0000    0.0000    0.0000   -0.0000   -0.0000   -0.0000   -0.0000
       40 U      3d0       -0.0000    0.0000   -0.6027    0.7980    0.0000    0.0000    0.0000   -0.0000    0.0000   -0.0000
       41 U      4d0        0.0000   -0.0000    0.0009   -0.0012   -0.0000    0.0000    0.0000    0.0000    0.0000   -0.0000
       42 U      5d0        0.0000   -0.0000    0.0001   -0.0001   -0.0000   -0.0000   -0.0000    0.0000    0.0000   -0.0000
       43 U      6d0       -0.0000    0.0000   -0.0000    0.0000    0.0000   -0.0000    0.0000   -0.0000   -0.0000    0.0000
       44 U      7d0        0.0000   -0.0000    0.0001   -0.0001   -0.0000   -0.0000    0.0000    0.0000    0.0000   -0.0000
       45 U      3d1+       0.0158    0.0024   -0.0000   -0.0000   -0.0000   -0.0000    0.0000    0.0000    0.0015    0.0000
       46 U      4d1+      -0.0000   -0.0000    0.0000    0.0000    0.0000    0.0000   -0.0000    0.0000    0.9998    0.0201
       47 U      5d1+      -0.0000   -0.0000    0.0000    0.0000    0.0000    0.0000   -0.0000   -0.0000    0.0037    0.0001
       48 U      6d1+      -0.0000   -0.0000    0.0000    0.0000    0.0000   -0.0000   -0.0000   -0.0000    0.0003    0.0000
       49 U      7d1+      -0.0000   -0.0000    0.0000    0.0000    0.0000   -0.0000   -0.0000   -0.0000    0.0026    0.0001
       50 U      3d2+       0.0000   -0.0000    0.7980    0.6027   -0.0000   -0.0000    0.0000   -0.0000    0.0000    0.0000
       51 U      4d2+      -0.0000    0.0000   -0.0012   -0.0009    0.0000   -0.0000    0.0000    0.0000    0.0000    0.0000
       52 U      5d2+      -0.0000    0.0000   -0.0001   -0.0001    0.0000    0.0000   -0.0000    0.0000    0.0000    0.0000
       53 U      6d2+       0.0000   -0.0000    0.0000    0.0000   -0.0000    0.0000    0.0000   -0.0000   -0.0000   -0.0000
       54 U      7d2+      -0.0000    0.0000   -0.0001   -0.0001    0.0000    0.0000    0.0000   -0.0000    0.0000    0.0000
       55 U      4f3-       0.0000   -0.0000    0.0000    0.0000   -0.0000   -0.0000    0.0000   -0.0001    0.0000    0.0000
       56 U      5f3-      -0.0000    0.0000    0.0000   -0.0000   -0.0000    0.0000   -0.0000    0.0002   -0.0000    0.0000
       57 U      6f3-       0.0000    0.0000    0.0000    0.0000    0.0000    0.0000   -0.0000    0.0005   -0.0000   -0.0000
       58 U      4f2-      -0.0000   -0.0000   -0.0000    0.0000    0.0000    0.0000   -0.0000   -0.0000    0.0000   -0.0000
       59 U      5f2-       0.0000    0.0000   -0.0000    0.0000   -0.0000    0.0000   -0.0000   -0.0000    0.0000   -0.0000
       60 U      6f2-      -0.0000   -0.0000    0.0000    0.0000    0.0000   -0.0000    0.0000    0.0000   -0.0000    0.0000
       61 U      4f1-      -0.0000    0.0000   -0.0000    0.0000   -0.0000   -0.0000    0.0000   -0.0000    0.0000   -0.0000
       62 U      5f1-      -0.0000   -0.0000    0.0000   -0.0000   -0.0000    0.0000   -0.0000    0.0002   -0.0000   -0.0000
       63 U      6f1-       0.0000    0.0000    0.0000    0.0000   -0.0000    0.0000   -0.0000    0.0004   -0.0000    0.0000
       64 U      4f0       -0.0000   -0.0000   -0.0000    0.0000    0.0000   -0.0000   -0.0001   -0.0000    0.0000   -0.0000
       65 U      5f0        0.0000    0.0000    0.0000   -0.0000    0.0000    0.0000    0.0003    0.0000    0.0000   -0.0000
       66 U      6f0        0.0000   -0.0000   -0.0000    0.0000    0.0000    0.0000    0.0006    0.0000   -0.0000   -0.0000
       67 U      4f1+       0.0000   -0.0000    0.0000   -0.0000    0.0000    0.0000   -0.0000   -0.0000    0.0000    0.0000
       68 U      5f1+      -0.0000   -0.0000   -0.0000    0.0000   -0.0000   -0.0002    0.0000    0.0000    0.0000    0.0000
       69 U      6f1+      -0.0000   -0.0000   -0.0000    0.0000   -0.0000   -0.0004    0.0000    0.0000   -0.0000    0.0000
       70 U      4f2+       0.0000   -0.0000    0.0000    0.0000   -0.0000    0.0000    0.0000    0.0000   -0.0000    0.0000
       71 U      5f2+      -0.0000    0.0000   -0.0000   -0.0000   -0.0000    0.0000    0.0000    0.0000   -0.0000   -0.0000
       72 U      6f2+      -0.0000   -0.0000    0.0000    0.0000   -0.0000   -0.0000   -0.0000   -0.0000    0.0000    0.0000
       73 U      4f3+       0.0000   -0.0000   -0.0000   -0.0000    0.0000   -0.0001    0.0000    0.0000   -0.0000    0.0000
       74 U      5f3+      -0.0000    0.0000    0.0000   -0.0000    0.0000    0.0002   -0.0000   -0.0000    0.0000    0.0000
       75 U      6f3+       0.0000    0.0000    0.0000   -0.0000    0.0000    0.0005   -0.0000   -0.0000    0.0000   -0.0000
       76 F1     1s        -0.0000    0.0000   -0.0000    0.0000   -0.0000   -0.0000   -0.0001   -0.0000   -0.0000    0.0000
       77 F1     2s        -0.0000    0.0000   -0.0000    0.0000   -0.0002   -0.0000   -0.0007   -0.0000   -0.0000    0.0000
       78 F1     3s        -0.0000    0.0000   -0.0000    0.0000   -0.0002   -0.0000   -0.0006   -0.0000   -0.0000    0.0000
       79 F1     2px        0.0000    0.0000   -0.0000   -0.0000   -0.0000    0.0000   -0.0000   -0.0000   -0.0004   -0.0000
       80 F1     3px        0.0000    0.0000   -0.0000   -0.0000   -0.0000    0.0002   -0.0000   -0.0000   -0.0007   -0.0000
       81 F1     2py       -0.0000    0.0000    0.0000    0.0000   -0.0000   -0.0000    0.0000   -0.0000    0.0000    0.0000
       82 F1     3py       -0.0000    0.0001    0.0000    0.0000   -0.0000   -0.0000    0.0000   -0.0002    0.0000    0.0000
       83 F1     2pz       -0.0000    0.0000   -0.0000    0.0000    0.0002    0.0000    0.0007    0.0000   -0.0000    0.0000
       84 F1     3pz       -0.0000    0.0000   -0.0000    0.0000    0.0002    0.0000    0.0008    0.0000   -0.0000    0.0000
       85 F2     1s         0.0000    0.0000   -0.0000   -0.0000   -0.0000    0.0000   -0.0000    0.0001    0.0000   -0.0000
       86 F2     2s         0.0000    0.0000   -0.0000   -0.0000   -0.0002    0.0000   -0.0000    0.0007    0.0000   -0.0000
       87 F2     3s         0.0000    0.0000   -0.0000   -0.0000   -0.0002    0.0000   -0.0000    0.0006    0.0000   -0.0000
       88 F2     2px       -0.0000   -0.0000    0.0000   -0.0000    0.0000    0.0000   -0.0000   -0.0000   -0.0000    0.0004
       89 F2     3px       -0.0001   -0.0000    0.0000   -0.0000    0.0000    0.0002   -0.0000   -0.0000   -0.0000    0.0007
       90 F2     2py        0.0000    0.0000   -0.0000   -0.0000    0.0002   -0.0000    0.0000   -0.0007    0.0000   -0.0000
       91 F2     3py        0.0000    0.0000   -0.0000   -0.0000    0.0002   -0.0000    0.0000   -0.0008    0.0000   -0.0000
       92 F2     2pz       -0.0000    0.0000    0.0000    0.0000   -0.0000    0.0000    0.0000    0.0000    0.0000    0.0000
       93 F2     3pz       -0.0000    0.0001    0.0000    0.0000   -0.0000    0.0000    0.0002    0.0000    0.0000    0.0000
       94 F3     1s         0.0000   -0.0000    0.0000    0.0000   -0.0000   -0.0001    0.0000    0.0000   -0.0000   -0.0000
       95 F3     2s         0.0000   -0.0000    0.0000    0.0000   -0.0002   -0.0007    0.0000    0.0000   -0.0000   -0.0000
       96 F3     3s         0.0000   -0.0000    0.0000    0.0000   -0.0002   -0.0006    0.0000    0.0000   -0.0000   -0.0000
       97 F3     2px        0.0000   -0.0000    0.0000    0.0000    0.0002    0.0007   -0.0000   -0.0000   -0.0000   -0.0000
       98 F3     3px        0.0000   -0.0000    0.0000    0.0000    0.0002    0.0008   -0.0000   -0.0000   -0.0000   -0.0000
       99 F3     2py       -0.0000   -0.0000    0.0000   -0.0000    0.0000   -0.0000    0.0000   -0.0000   -0.0000    0.0004
      100 F3     3py       -0.0001   -0.0000    0.0000   -0.0000    0.0000   -0.0000    0.0000   -0.0002   -0.0000    0.0007
      101 F3     2pz        0.0000    0.0000   -0.0000   -0.0000   -0.0000    0.0000    0.0000    0.0000   -0.0004   -0.0000
      102 F3     3pz        0.0000    0.0000   -0.0000   -0.0000   -0.0000    0.0000    0.0002    0.0000   -0.0007   -0.0000
      103 F4     1s        -0.0000    0.0000   -0.0000    0.0000   -0.0000    0.0000    0.0001    0.0000   -0.0000    0.0000
      104 F4     2s        -0.0000    0.0000   -0.0000    0.0000   -0.0002    0.0000    0.0007    0.0000   -0.0000    0.0000
      105 F4     3s        -0.0000    0.0000   -0.0000    0.0000   -0.0002    0.0000    0.0006    0.0000   -0.0000    0.0000
      106 F4     2px       -0.0000   -0.0000    0.0000    0.0000    0.0000    0.0000   -0.0000   -0.0000    0.0004    0.0000
      107 F4     3px       -0.0000   -0.0000    0.0000    0.0000    0.0000    0.0002   -0.0000   -0.0000    0.0007    0.0000
      108 F4     2py        0.0000   -0.0000   -0.0000   -0.0000    0.0000   -0.0000    0.0000   -0.0000   -0.0000   -0.0000
      109 F4     3py        0.0000   -0.0001   -0.0000   -0.0000    0.0000   -0.0000    0.0000   -0.0002   -0.0000   -0.0000
      110 F4     2pz        0.0000   -0.0000    0.0000   -0.0000   -0.0002    0.0000    0.0007    0.0000    0.0000   -0.0000
      111 F4     3pz        0.0000   -0.0000    0.0000   -0.0000   -0.0002    0.0000    0.0008    0.0000    0.0000   -0.0000
      112 F5     1s         0.0000    0.0000   -0.0000   -0.0000   -0.0000   -0.0000    0.0000   -0.0001    0.0000   -0.0000
      113 F5     2s         0.0000    0.0000   -0.0000   -0.0000   -0.0002   -0.0000    0.0000   -0.0007    0.0000   -0.0000
      114 F5     3s         0.0000    0.0000   -0.0000   -0.0000   -0.0002   -0.0000    0.0000   -0.0006    0.0000   -0.0000
      115 F5     2px        0.0000    0.0000   -0.0000    0.0000   -0.0000    0.0000   -0.0000   -0.0000    0.0000   -0.0004
      116 F5     3px        0.0001    0.0000   -0.0000    0.0000   -0.0000    0.0002   -0.0000   -0.0000    0.0000   -0.0007
      117 F5     2py       -0.0000   -0.0000    0.0000    0.0000   -0.0002   -0.0000    0.0000   -0.0007   -0.0000    0.0000
      118 F5     3py       -0.0000   -0.0000    0.0000    0.0000   -0.0002   -0.0000    0.0000   -0.0008   -0.0000    0.0000
      119 F5     2pz        0.0000   -0.0000   -0.0000   -0.0000    0.0000    0.0000    0.0000    0.0000   -0.0000   -0.0000
      120 F5     3pz        0.0000   -0.0001   -0.0000   -0.0000    0.0000    0.0000    0.0002    0.0000   -0.0000   -0.0000
      121 F6     1s         0.0000   -0.0000    0.0000    0.0000   -0.0000    0.0001   -0.0000   -0.0000   -0.0000   -0.0000
      122 F6     2s         0.0000   -0.0000    0.0000    0.0000   -0.0002    0.0007   -0.0000   -0.0000   -0.0000   -0.0000
      123 F6     3s         0.0000   -0.0000    0.0000    0.0000   -0.0002    0.0006   -0.0000   -0.0000   -0.0000   -0.0000
      124 F6     2px       -0.0000    0.0000   -0.0000   -0.0000   -0.0002    0.0007   -0.0000   -0.0000    0.0000    0.0000
      125 F6     3px       -0.0000    0.0000   -0.0000   -0.0000   -0.0002    0.0008   -0.0000   -0.0000    0.0000    0.0000
      126 F6     2py        0.0000    0.0000   -0.0000    0.0000   -0.0000   -0.0000    0.0000   -0.0000    0.0000   -0.0004
      127 F6     3py        0.0001    0.0000   -0.0000    0.0000   -0.0000   -0.0000    0.0000   -0.0002    0.0000   -0.0007
      128 F6     2pz       -0.0000   -0.0000    0.0000    0.0000    0.0000    0.0000    0.0000    0.0000    0.0004    0.0000
      129 F6     3pz       -0.0000   -0.0000    0.0000    0.0000    0.0000    0.0000    0.0002    0.0000    0.0007    0.0000

          Orbital           21        22        23        24        25        26        27        28        29        30    
          Energy          -26.9426  -26.9390  -26.9390  -24.3435  -24.3435  -24.3435  -24.3435  -24.3435  -24.3435  -13.9526
          Occ. No.          2.0000    2.0000    2.0000    2.0000    2.0000    2.0000    2.0000    2.0000    2.0000    2.0000

        1 U      1s         0.0000    0.0000    0.0000    0.0000   -0.0000    0.0000    0.0000   -0.0000    0.0000   -0.0000
        2 U      2s         0.0000    0.0000    0.0000    0.0000   -0.0000    0.0000    0.0000   -0.0000    0.0000   -0.0000
        3 U      3s        -0.0000   -0.0000   -0.0000    0.0000   -0.0000    0.0001    0.0000   -0.0000    0.0000    0.0000
        4 U      4s        -0.0000   -0.0000   -0.0000    0.0000   -0.0000    0.0003    0.0000   -0.0000    0.0000   -0.0000
        5 U      5s         0.0000    0.0000    0.0000    0.0001   -0.0000    0.0009    0.0000   -0.0000    0.0000   -0.0000
        6 U      6s        -0.0000   -0.0000   -0.0000    0.0003   -0.0001    0.0032    0.0000   -0.0000    0.0000   -0.0000
        7 U      7s         0.0000    0.0000    0.0000    0.0004   -0.0001    0.0048    0.0000   -0.0000    0.0000   -0.0000
        8 U      8s        -0.0000   -0.0000   -0.0000   -0.0001    0.0000   -0.0014   -0.0000    0.0000   -0.0000    0.0000
[...]
      5f3+     0.4224  0.0000  0.0000  0.0000  0.0000  0.0000  0.0000
      5f2+     0.2826  0.0000  0.0000  0.0000  0.0000  0.0000  0.0000
      5f1+     0.3665  0.0000  0.0000  0.0000  0.0000  0.0000  0.0000
      5f0      0.5063  0.0000  0.0000  0.0000  0.0000  0.0000  0.0000
      5f1-     0.3665  0.0000  0.0000  0.0000  0.0000  0.0000  0.0000
      5f2-     0.0000  0.0000  0.0000  0.0000  0.0000  0.0000  0.0000
      5f3-     0.4224  0.0000  0.0000  0.0000  0.0000  0.0000  0.0000
      6d2+     0.3048  0.0000  0.0000  0.0000  0.0000  0.0000  0.0000
      6d1+     0.3285  0.0000  0.0000  0.0000  0.0000  0.0000  0.0000
      6d0      0.3048  0.0000  0.0000  0.0000  0.0000  0.0000  0.0000
      6d1-     0.3285  0.0000  0.0000  0.0000  0.0000  0.0000  0.0000
      6d2-     0.3285  0.0000  0.0000  0.0000  0.0000  0.0000  0.0000
      7px      0.0479  0.0000  0.0000  0.0000  0.0000  0.0000  0.0000
      7pz      0.0479  0.0000  0.0000  0.0000  0.0000  0.0000  0.0000
      7py      0.0479  0.0000  0.0000  0.0000  0.0000  0.0000  0.0000
      6f3+     0.0327  0.0000  0.0000  0.0000  0.0000  0.0000  0.0000
      6f2+     0.0232  0.0000  0.0000  0.0000  0.0000  0.0000  0.0000
      6f1+     0.0289  0.0000  0.0000  0.0000  0.0000  0.0000  0.0000
      6f0      0.0384  0.0000  0.0000  0.0000  0.0000  0.0000  0.0000
      6f1-     0.0289  0.0000  0.0000  0.0000  0.0000  0.0000  0.0000
      6f2-     0.0000  0.0000  0.0000  0.0000  0.0000  0.0000  0.0000
      6f3-     0.0327  0.0000  0.0000  0.0000  0.0000  0.0000  0.0000
      7d2+     0.0319  0.0000  0.0000  0.0000  0.0000  0.0000  0.0000
      7d1+    -0.0060  0.0000  0.0000  0.0000  0.0000  0.0000  0.0000
      7d0      0.0319  0.0000  0.0000  0.0000  0.0000  0.0000  0.0000
      7d1-    -0.0060  0.0000  0.0000  0.0000  0.0000  0.0000  0.0000
      7d2-    -0.0060  0.0000  0.0000  0.0000  0.0000  0.0000  0.0000
      8s       0.0902  0.0000  0.0000  0.0000  0.0000  0.0000  0.0000
      8px      0.0225  0.0000  0.0000  0.0000  0.0000  0.0000  0.0000
      8pz      0.0225  0.0000  0.0000  0.0000  0.0000  0.0000  0.0000
      8py      0.0225  0.0000  0.0000  0.0000  0.0000  0.0000  0.0000
      Total   90.4385  9.2603  9.2603  9.2603  9.2603  9.2603  9.2603

      N-E      1.5615 -0.2603 -0.2603 -0.2603 -0.2603 -0.2603 -0.2603

      Total electronic charge=  146.000000

      Total            charge=   -0.000000

      Mulliken Bond Order analysis
      ----------------------------
      Only bonds with order larger than 0.500 are printed

        Atom A        Atom B        Bond Order
        U             F1              1.196
        U             F2              1.196
        U             F3              1.196
        U             F4              1.196
        U             F5              1.196
        U             F6              1.196

--


  Input file to MOLDEN was generated!


++    Static properties:
      ------------------


      LoProp Charges per center


                   U        F1       F2       F3       F4       F5       F6    
      Nuclear     92.0000   9.0000   9.0000   9.0000   9.0000   9.0000   9.0000
      Electronic -89.1074  -9.4821  -9.4821  -9.4821  -9.4821  -9.4821  -9.4821

      Total        2.8926  -0.4821  -0.4821  -0.4821  -0.4821  -0.4821  -0.4821
--


++    Natural Bond Order analysis
      ---------------------------
      Based on LoProp computed density
      -------------------------------------------------------------------------------------
      Atom A       Atom B       Bond Order | Atom A       Atom B       Bond Order
        U            F1             1.000  |   U            F4             1.000
        U            F2             1.000  |   U            F5             1.000
        U            F3             1.000  |   U            F6             1.000
      -------------------------------------------------------------------------------------
      NBO located     96.000 core electrons.
      NBO located     35.642 lone pair electrons.
      NBO located     11.995 electrons involved in    6 bonds.
      The remaining    2.363 electrons are to be considered as diffuse
--


      Expectation values of various operators

++    Molecular properties:
      ---------------------



       0-th cartesian moments: origin at (  0.00000000,  0.00000000,  0.00000000)
      ----------------------------------------------------------------------------
 Total electronic          -146.00000000
 Total nuclear              146.00000000
 Total                       -0.00000000


       1-st cartesian moments: origin at (  0.00000000,  0.00000000,  0.00000000)
      ----------------------------------------------------------------------------
 Component                             X               Y               Z
 Total electronic            -0.00000000     -0.00000000     -0.00000000
 Total nuclear                0.00000000      0.00000000      0.00000000
 Total                       -0.00000000     -0.00000000     -0.00000000
      ----------------------------------------------------------------------------
      Total                  -0.00000000     -0.00000000     -0.00000000   Debye


       2-nd cartesian moments: origin at (  0.00000000,  0.00000000,  0.00000000)
      ----------------------------------------------------------------------------
 Component                            XX              XY              XZ              YY              YZ              ZZ
 Total electronic          -337.41663486      0.00000001     -0.00000001   -337.41665044     -0.00000002   -337.41663342
 Total nuclear              280.92750736      0.00000000      0.00000000    280.92750736      0.00000000    280.92750736
 Total                      -56.48912750      0.00000001     -0.00000001    -56.48914308     -0.00000002    -56.48912607



      Cartesian  2-pole moment: origin at (  0.00000000,  0.00000000,  0.00000000)
      ----------------------------------------------------------------------------
 Component                            XX              XY              XZ              YY              YZ              ZZ
 Total electronic             0.00000707      0.00000002     -0.00000002     -0.00001630     -0.00000003      0.00000923
 Total nuclear                0.00000000      0.00000000      0.00000000      0.00000000      0.00000000      0.00000000
 Total                        0.00000707      0.00000002     -0.00000002     -0.00001630     -0.00000003      0.00000923

--


++ Statistics and timing
   ---------------------

  - - - - - - - - - - - - - - - - - - - - - - - - - - - - - - - - - -
     Part of the program                              CPU    fraction
  - - - - - - - - - - - - - - - - - - - - - - - - - - - - - - - - - -
  1) Input processing                         :      0.08      0.00
  2) Wave function optimization               :    144.50      1.00
       Line Search Iterations    (QNR steps)  :      0.00      0.00
    a ) calculation of the density            :      0.00      0.00
    b ) contraction with integrals            :    143.65      0.99
    c ) acceleration of convergence           :      0.00      0.00
          recursive BFGS         (QNR steps)  :      0.01      0.00
    d ) solution to Roothaan-Hall equations   :      0.15      0.00
    d') rotate MOs C with U      (QNR steps)  :      0.03      0.00
          U=exp(kap)                          :      0.03      0.00
            via Taylor expansion (sin/cos)    :      0.01      0.00
            via transformation to Schur basis :      0.02      0.00
    e') transf. Fck Mat. with C  (QNR steps)  :      0.01      0.00
    f ) other calculations                    :      0.01      0.00
  3) Final processing (generation of outputs) :      0.52      0.00

     T O T A L                                :    145.22
  - - - - - - - - - - - - - - - - - - - - - - - - - - - - - - - - - -
--


  Input file to MOLDEN was generated!

++ I/O STATISTICS
 
  I. General I/O information
  - - - - - - - - - - - - - - - - - - - - - - - - - - - - - - - - - - - - - - - - - - -
  Unit  Name          Flsize      Write/Read            MBytes           Write/Read
                      (MBytes)       Calls              In/Out           Time, sec.
  - - - - - - - - - - - - - - - - - - - - - - - - - - - - - - - - - - - - - - - - - - -
   1  RUNFILE           9.37 .    1799/   26104 .     19.2/    215.3 .       0/       0
   2  DNSMAT            1.22 .      19/      10 .      1.2/      0.6 .       0/       0
   3  DVXCDR            1.22 .      19/      10 .      1.2/      0.6 .       0/       0
   4  TWOHAM            1.22 .      19/      10 .      1.2/      0.6 .       0/       0
   5  GRADIENT          0.00 .       0/       0 .      0.0/      0.0 .       0/       0
   6  SODGRAD           0.00 .       0/       0 .      0.0/      0.0 .       0/       0
   7  SOXVEC            0.00 .       0/       0 .      0.0/      0.0 .       0/       0
   8  SODELTA           0.00 .       0/       0 .      0.0/      0.0 .       0/       0
   9  SOYVEC            0.00 .       0/       0 .      0.0/      0.0 .       0/       0
  10  ONEINT            2.78 .       2/     384 .      1.1/    148.2 .       0/       0
  11  CHRED             0.13 .       0/      52 .      0.0/      1.7 .       0/       0
  12  CHVEC1           59.62 .       0/       1 .      0.0/     59.6 .       0/       0
  13  CHORST            0.04 .       0/      12 .      0.0/      0.0 .       0/       0
  14  CHOMAP            0.00 .       0/       0 .      0.0/      0.0 .       0/       0
  15  .RUNTMP           0.19 .     323/    2507 .      2.5/     19.9 .       0/       0
  16  NQGRID            2.78 .    7233/  172463 .      3.0/     66.6 .       0/       0
  - - - - - - - - - - - - - - - - - - - - - - - - - - - - - - - - - - - - - - - - - - -
   *  TOTAL            78.57 .    9414/  201553 .     29.4/    513.3 .       0/       0
  - - - - - - - - - - - - - - - - - - - - - - - - - - - - - - - - - - - - - - - - - - -
 
  II. I/O Access Patterns
  - - - - - - - - - - - - - - - - - - - -
  Unit  Name               % of random
                         Write/Read calls
  - - - - - - - - - - - - - - - - - - - -
   1  RUNFILE             28.6/  11.6
   2  DNSMAT              94.7/ 100.0
   3  DVXCDR              94.7/ 100.0
   4  TWOHAM              94.7/ 100.0
   5  GRADIENT             0.0/   0.0
   6  SODGRAD              0.0/   0.0
   7  SOXVEC               0.0/   0.0
   8  SODELTA              0.0/   0.0
   9  SOYVEC               0.0/   0.0
  10  ONEINT             100.0/  23.7
  11  CHRED                0.0/  46.2
  12  CHVEC1               0.0/   0.0
  13  CHORST               0.0/   0.0
  14  CHOMAP               0.0/   0.0
  15  .RUNTMP             28.2/   8.5
  16  NQGRID               7.4/  14.3
  - - - - - - - - - - - - - - - - - - - -
--
 ###############################################################################
 ###############################################################################
 ###                                                                         ###
 ###                                                                         ###
 ###    WARNING: RunFile label nBas                                          ###
 ###    was used      104 times                                              ###
 ###                                                                         ###
 ###                                                                         ###
 ###############################################################################
 ###############################################################################
 ###############################################################################
 ###############################################################################
 ###                                                                         ###
 ###                                                                         ###
 ###    WARNING: RunFile label System BitSwitch                              ###
 ###    was used       50 times                                              ###
 ###                                                                         ###
 ###                                                                         ###
 ###############################################################################
 ###############################################################################
--- Stop Module: scf at Tue May 12 16:29:58 2020 /rc=_RC_ALL_IS_WELL_ ---
*** files: uf6.LprOrb uf6.LoProp.molden uf6.scf.molden uf6.ScfOrb uf6.scf.h5 xmldump
    saved to directory /projects/academic/jochena/gaurabga/TEST/mo-percent/UF6-NoSym
--- Module scf spent 2 minutes 27 seconds ---

>>> COPY uf6.ScfOrb /projects/academic/jochena/gaurabga/TEST/mo-percent/UF6-NoSym/uf6.ScfOrb

>>> COPY /projects/academic/jochena/gaurabga/TEST/mo-percent/UF6-NoSym/uf6.ScfOrb INPORB

--- Start Module: grid_it at Tue May 12 16:29:58 2020 ---

()()()()()()()()()()()()()()()()()()()()()()()()()()()()()()()()()()()()()()()()()()()()()()()()()()

                                              &GRID_IT

                                   only a single process is used
                       available to each process: 55 GB of memory, 1 thread?
()()()()()()()()()()()()()()()()()()()()()()()()()()()()()()()()()()()()()()()()()()()()()()()()()()


      Cartesian coordinates:
      -----------------------------------------
      No.  Label     X         Y         Z     
      -----------------------------------------
       1   U          0.00000   0.00000   0.00000
       2   F1         0.00000   0.00000   3.95058
       3   F2         0.00000   3.95058   0.00000
       4   F3         3.95058   0.00000   0.00000
       5   F4         0.00000   0.00000  -3.95058
       6   F5         0.00000  -3.95058   0.00000
       7   F6        -3.95058   0.00000   0.00000
      -----------------------------------------
      Grid Origin      =    -7.000000   -7.000000   -7.000000
      Grid Axis Length =    14.000000   14.000000   14.000000
      -----------------------------------------



Irreps  :     1
Basis   :   129
Grid Net:    28   28   28

   Input vectors read from INPORB
   Orbital file label: * RKS-DFT orbitals / PBE
  Number of grid points in file:                  24389

  Total number of MOs               :                  129
  Number MOs for grid               :                  129
  Batches processed in increments of:                18432

++  list of grids
GridName=  1  127      2.2145 (0.00) s
GridName=  1  128      2.2145 (0.00) s
GridName=  1  129      2.2145 (0.00) s
GridName=  1  126      2.0791 (0.00) s
GridName=  1  124      2.0547 (0.00) s
GridName=  1  125      2.0547 (0.00) s
GridName=  1  121      1.2228 (0.00) s
GridName=  1  122      1.2228 (0.00) s
GridName=  1  123      1.2228 (0.00) s
GridName=  1  118      1.1271 (0.00) s
GridName=  1  119      1.1271 (0.00) s
GridName=  1  120      1.1271 (0.00) s
GridName=  1  115      1.0551 (0.00) s
GridName=  1  116      1.0551 (0.00) s
GridName=  1  117      1.0551 (0.00) s
GridName=  1  113      1.0207 (0.00) s
GridName=  1  114      1.0207 (0.00) s
GridName=  1  110      0.9709 (0.00) s
GridName=  1  111      0.9709 (0.00) s
GridName=  1  112      0.9709 (0.00) s
GridName=  1  109      0.8196 (0.00) s
GridName=  1  106      0.7540 (0.00) s
GridName=  1  107      0.7540 (0.00) s
GridName=  1  108      0.7540 (0.00) s
GridName=  1  103      0.7344 (0.00) s
GridName=  1  104      0.7344 (0.00) s
GridName=  1  105      0.7344 (0.00) s
GridName=  1  102      0.5234 (0.00) s
GridName=  1   99      0.4893 (0.00) s
GridName=  1  100      0.4893 (0.00) s
GridName=  1  101      0.4893 (0.00) s
GridName=  1   96      0.4249 (0.00) s
GridName=  1   97      0.4249 (0.00) s
GridName=  1   98      0.4249 (0.00) s
GridName=  1   93      0.3704 (0.00) s
GridName=  1   94      0.3704 (0.00) s
GridName=  1   95      0.3704 (0.00) s
GridName=  1   91      0.3446 (0.00) s
GridName=  1   92      0.3446 (0.00) s
GridName=  1   90      0.2715 (0.00) s
GridName=  1   88      0.1182 (0.00) s
GridName=  1   89      0.1182 (0.00) s
GridName=  1   85      0.0516 (0.00) s
GridName=  1   86      0.0516 (0.00) s
GridName=  1   87      0.0516 (0.00) s
GridName=  1   84     -0.0327 (0.00) s
GridName=  1   81     -0.0645 (0.00) s
GridName=  1   82     -0.0645 (0.00) s
GridName=  1   83     -0.0645 (0.00) s
GridName=  1   78     -0.2457 (0.00) s
GridName=  1   79     -0.2457 (0.00) s
GridName=  1   80     -0.2457 (0.00) s
GridName=  1   75     -0.2822 (0.00) s
GridName=  1   76     -0.2822 (0.00) s
GridName=  1   77     -0.2822 (0.00) s
GridName=  1   74     -0.3036 (0.00) s
GridName=  1   71     -0.3999 (2.00) i
GridName=  1   72     -0.3999 (2.00) i
GridName=  1   73     -0.3999 (2.00) i
GridName=  1   68     -0.4028 (2.00) i
GridName=  1   69     -0.4028 (2.00) i
GridName=  1   70     -0.4028 (2.00) i
GridName=  1   65     -0.4307 (2.00) i
GridName=  1   66     -0.4307 (2.00) i
GridName=  1   67     -0.4307 (2.00) i
GridName=  1   64     -0.4430 (2.00) i
GridName=  1   61     -0.4464 (2.00) i
GridName=  1   62     -0.4464 (2.00) i
GridName=  1   63     -0.4464 (2.00) i
GridName=  1   58     -0.4539 (2.00) i
GridName=  1   59     -0.4539 (2.00) i
GridName=  1   60     -0.4539 (2.00) i
GridName=  1   56     -0.4751 (2.00) i
GridName=  1   57     -0.4751 (2.00) i
GridName=  1   53     -0.9470 (2.00) i
GridName=  1   54     -0.9470 (2.00) i
GridName=  1   55     -0.9470 (2.00) i
GridName=  1   52     -1.1165 (2.00) i
GridName=  1   50     -1.1273 (2.00) i
GridName=  1   51     -1.1273 (2.00) i
GridName=  1   47     -1.1758 (2.00) i
GridName=  1   48     -1.1758 (2.00) i
GridName=  1   49     -1.1758 (2.00) i
GridName=  1   46     -1.9154 (2.00) i
GridName=  1   44     -3.8659 (2.00) i
GridName=  1   45     -3.8659 (2.00) i
GridName=  1   41     -3.8684 (2.00) i
GridName=  1   42     -3.8684 (2.00) i
GridName=  1   43     -3.8684 (2.00) i
GridName=  1   38     -7.9195 (2.00) i
GridName=  1   39     -7.9195 (2.00) i
GridName=  1   40     -7.9195 (2.00) i
GridName=  1   37    -11.5810 (2.00) i
GridName=  1   34    -13.9490 (2.00) i
GridName=  1   35    -13.9490 (2.00) i
GridName=  1   36    -13.9490 (2.00) i
GridName=  1   31    -13.9500 (2.00) i
GridName=  1   32    -13.9500 (2.00) i
GridName=  1   33    -13.9500 (2.00) i
GridName=  1   30    -13.9530 (2.00) i
GridName=  1   24    -24.3440 (2.00) i
GridName=  1   25    -24.3440 (2.00) i
GridName=  1   26    -24.3440 (2.00) i
GridName=  1   27    -24.3440 (2.00) i
GridName=  1   28    -24.3440 (2.00) i
GridName=  1   29    -24.3440 (2.00) i
GridName=  1   22    -26.9390 (2.00) i
GridName=  1   23    -26.9390 (2.00) i
GridName=  1   19    -26.9430 (2.00) i
GridName=  1   20    -26.9430 (2.00) i
GridName=  1   21    -26.9430 (2.00) i
GridName=  1   16    -39.5100 (2.00) i
GridName=  1   17    -39.5100 (2.00) i
GridName=  1   18    -39.5100 (2.00) i
GridName=  1   15    -51.2420 (2.00) i
GridName=  1   10   -131.1800 (2.00) i
GridName=  1   11   -131.1800 (2.00) i
GridName=  1   12   -131.1800 (2.00) i
GridName=  1   13   -131.1800 (2.00) i
GridName=  1   14   -131.1800 (2.00) i
GridName=  1    7   -164.6800 (2.00) i
GridName=  1    8   -164.6800 (2.00) i
GridName=  1    9   -164.6800 (2.00) i
GridName=  1    6   -200.2700 (2.00) i
GridName=  1    3   -664.6200 (2.00) i
GridName=  1    4   -664.6200 (2.00) i
GridName=  1    5   -664.6200 (2.00) i
GridName=  1    2   -791.8100 (2.00) i
--

--- Stop Module: grid_it at Tue May 12 16:29:59 2020 /rc=_RC_ALL_IS_WELL_ ---
*** files: uf6.lus xmldump
    saved to directory /projects/academic/jochena/gaurabga/TEST/mo-percent/UF6-NoSym

>>> COPY uf6.lus /projects/academic/jochena/gaurabga/TEST/mo-percent/UF6-NoSym/uf6-scf.lus

.########################.
.# Non-zero return code #.
.########################.

    Timing: Wall=205.75 User=197.97 System=6.53
